 argument  1 = gochem.nw



============================== echo of input deck ==============================
start gochem
echo
charge 0
memory total 1000 mb
geometry units angstroms noautosym noautoz
 H      1.627  -0.038   0.846
 C      1.011  -0.045  -0.063
 H1     1.325   0.803  -0.685
 H      1.250  -0.961  -0.619
 C     -0.462   0.031   0.295
 H     -0.758  -0.826   0.932
 H     -0.682   0.954   0.867
 O     -1.198   0.018  -0.907
 H     -2.113   0.065  -0.665
end

basis "3-21g"
 * library 3-21g
end
set "ao basis" 3-21g
scf
 maxiter 200
 vectors output hf.movecs
 singlet
end
task scf energy

basis "large" spherical
 H  library def2-svp
 C  library def2-svp
 H1 library def2-tzvp
 O  library def2-tzvp
end
set "ao basis" large
basis "cd basis"
 * library "Ahlrichs Coulomb Fitting"
end
constraints
 fix atom 2
end
cosmo
 dielec  4.0
 do_gasphase False
end
dft
 vectors input project "3-21g" hf.movecs output gochem.movecs
 iterations 200
 convergence energy 5.000000E-08
 convergence density 5.000000E-09
 convergence gradient 1E-05
 grid xfine
 xc xtpss03 ctpss03
 disp vdw 3
 print convergence
 mult 1
end
driver
 maxiter 200
 eprec 1E-7
 trust 0.3
 gmax 0.0500
 grms 0.0300
 xmax 0.1800
 xrms 0.1200
 xyz gochem_prev
end
task dft optimize
driver
 maxiter 200
 eprec 1E-7
 trust 0.1
 gmax 0.009
 grms 0.001
 xmax 0.04
 xrms 0.02
 xyz gochem_prev2
end
task dft optimize
driver
 maxiter 200
 eprec 1E-7
 trust 0.05
 xyz gochem
end
task dft optimize
================================================================================


                                         
                                         


              Northwest Computational Chemistry Package (NWChem) 6.3
              ------------------------------------------------------


                    Environmental Molecular Sciences Laboratory
                       Pacific Northwest National Laboratory
                                Richland, WA 99352

                              Copyright (c) 1994-2012
                       Pacific Northwest National Laboratory
                            Battelle Memorial Institute

             NWChem is an open-source computational chemistry package
                        distributed under the terms of the
                      Educational Community License (ECL) 2.0
             A copy of the license is included with this distribution
                              in the LICENSE.TXT file

                                  ACKNOWLEDGMENT
                                  --------------

            This software and its documentation were developed at the
            EMSL at Pacific Northwest National Laboratory, a multiprogram
            national laboratory, operated for the U.S. Department of Energy
            by Battelle under Contract Number DE-AC05-76RL01830. Support
            for this work was provided by the Department of Energy Office
            of Biological and Environmental Research, Office of Basic
            Energy Sciences, and the Office of Advanced Scientific Computing.


           Job information
           ---------------

    hostname        = Corsario
    program         = nwchem
    date            = Sun Feb  2 20:49:55 2014

    compiled        = Sun_Feb_02_01:11:34_2014
    source          = /wrk/programs/nwchem/nwchem-6.3.revision2-src.2013-10-17
    nwchem branch   = 6.3
    nwchem revision = 24652
    ga revision     = 10379
    input           = gochem.nw
    prefix          = gochem.
    data base       = ./gochem.db
    status          = startup
    nproc           =        1
    time left       =     -1s



           Memory information
           ------------------

    heap     =   32768001 doubles =    250.0 Mbytes
    stack    =   32768001 doubles =    250.0 Mbytes
    global   =   65536000 doubles =    500.0 Mbytes (distinct from heap & stack)
    total    =  131072002 doubles =   1000.0 Mbytes
    verify   = yes
    hardfail = no 


           Directory information
           ---------------------

  0 permanent = .
  0 scratch   = .




                                NWChem Input Module
                                -------------------



 Scaling coordinates for geometry "geometry" by  1.889725989
 (inverse scale =  0.529177249)



                             Geometry "geometry" -> ""
                             -------------------------

 Output coordinates in angstroms (scale by  1.889725989 to convert to a.u.)

  No.       Tag          Charge          X              Y              Z
 ---- ---------------- ---------- -------------- -------------- --------------
    1 H                    1.0000     1.84396154    -0.04019231     1.04553846
    2 C                    6.0000     1.22796154    -0.04719231     0.13653846
    3 H1                   1.0000     1.54196154     0.80080769    -0.48546154
    4 H                    1.0000     1.46696154    -0.96319231    -0.41946154
    5 C                    6.0000    -0.24503846     0.02880769     0.49453846
    6 H                    1.0000    -0.54103846    -0.82819231     1.13153846
    7 H                    1.0000    -0.46503846     0.95180769     1.06653846
    8 O                    8.0000    -0.98103846     0.01580769    -0.70746154
    9 H                    1.0000    -1.89603846     0.06280769    -0.46546154

      Atomic Mass 
      ----------- 

      H                  1.007825
      C                 12.000000
      H1                 1.007825
      O                 15.994910


 Effective nuclear repulsion energy (a.u.)      81.9709425313

            Nuclear Dipole moment (a.u.) 
            ----------------------------
        X                 Y               Z
 ---------------- ---------------- ----------------
    -0.0000000000     0.0000000000    -0.0000000000


            XYZ format geometry
            -------------------
     9
 geometry
 H                     1.84396154    -0.04019231     1.04553846
 C                     1.22796154    -0.04719231     0.13653846
 H1                    1.54196154     0.80080769    -0.48546154
 H                     1.46696154    -0.96319231    -0.41946154
 C                    -0.24503846     0.02880769     0.49453846
 H                    -0.54103846    -0.82819231     1.13153846
 H                    -0.46503846     0.95180769     1.06653846
 O                    -0.98103846     0.01580769    -0.70746154
 H                    -1.89603846     0.06280769    -0.46546154

 ==============================================================================
                                internuclear distances
 ------------------------------------------------------------------------------
       center one      |      center two      | atomic units |  angstroms
 ------------------------------------------------------------------------------
    2 C                |   1 H                |     2.07508  |     1.09808
    3 H1               |   2 C                |     2.07404  |     1.09754
    4 H                |   2 C                |     2.07467  |     1.09787
    5 C                |   2 C                |     2.86820  |     1.51778
    6 H                |   5 C                |     2.09396  |     1.10808
    7 H                |   5 C                |     2.09369  |     1.10793
    8 O                |   5 C                |     2.66355  |     1.40949
    9 H                |   8 O                |     1.79076  |     0.94763
 ------------------------------------------------------------------------------
                         number of included internuclear distances:          8
 ==============================================================================



 ==============================================================================
                                 internuclear angles
 ------------------------------------------------------------------------------
        center 1       |       center 2       |       center 3       |  degrees
 ------------------------------------------------------------------------------
    1 H                |   2 C                |   3 H1               |   107.68
    1 H                |   2 C                |   4 H                |   107.60
    1 H                |   2 C                |   5 C                |   110.42
    3 H1               |   2 C                |   4 H                |   107.18
    3 H1               |   2 C                |   5 C                |   111.88
    4 H                |   2 C                |   5 C                |   111.87
    2 C                |   5 C                |   6 H                |   110.86
    2 C                |   5 C                |   7 H                |   110.87
    2 C                |   5 C                |   8 O                |   107.77
    6 H                |   5 C                |   7 H                |   107.13
    6 H                |   5 C                |   8 O                |   110.10
    7 H                |   5 C                |   8 O                |   110.14
    5 C                |   8 O                |   9 H                |   106.62
 ------------------------------------------------------------------------------
                            number of included internuclear angles:         13
 ==============================================================================





 Summary of "3-21g" -> "" (cartesian)
 ------------------------------------------------------------------------------
       Tag                 Description            Shells   Functions and Types
 ---------------- ------------------------------  ------  ---------------------
 *                           3-21g                    on all atoms 


                      Basis "ao basis" -> "3-21g" (cartesian)
                      -----
  H (Hydrogen)
  ------------
            Exponent  Coefficients 
       -------------- ---------------------------------------------------------
  1 S  5.44717800E+00  0.156285
  1 S  8.24547000E-01  0.904691

  2 S  1.83192000E-01  1.000000

  C (Carbon)
  ----------
            Exponent  Coefficients 
       -------------- ---------------------------------------------------------
  1 S  1.72256000E+02  0.061767
  1 S  2.59109000E+01  0.358794
  1 S  5.53335000E+00  0.700713

  2 S  3.66498000E+00 -0.395897
  2 S  7.70545000E-01  1.215840

  3 P  3.66498000E+00  0.236460
  3 P  7.70545000E-01  0.860619

  4 S  1.95857000E-01  1.000000

  5 P  1.95857000E-01  1.000000

  H1 (Hydrogen)
  -------------
            Exponent  Coefficients 
       -------------- ---------------------------------------------------------
  1 S  5.44717800E+00  0.156285
  1 S  8.24547000E-01  0.904691

  2 S  1.83192000E-01  1.000000

  O (Oxygen)
  ----------
            Exponent  Coefficients 
       -------------- ---------------------------------------------------------
  1 S  3.22037000E+02  0.059239
  1 S  4.84308000E+01  0.351500
  1 S  1.04206000E+01  0.707658

  2 S  7.40294000E+00 -0.404453
  2 S  1.57620000E+00  1.221560

  3 P  7.40294000E+00  0.244586
  3 P  1.57620000E+00  0.853955

  4 S  3.73684000E-01  1.000000

  5 P  3.73684000E-01  1.000000



 Summary of "ao basis" -> "3-21g" (cartesian)
 ------------------------------------------------------------------------------
       Tag                 Description            Shells   Functions and Types
 ---------------- ------------------------------  ------  ---------------------
 H                           3-21g                   2        2   2s
 C                           3-21g                   5        9   3s2p
 H1                          3-21g                   2        2   2s
 O                           3-21g                   5        9   3s2p


                                 NWChem SCF Module
                                 -----------------



  ao basis        = "3-21g"
  functions       =    39
  atoms           =     9
  closed shells   =    13
  open shells     =     0
  charge          =   0.00
  wavefunction    = RHF 
  input vectors   = atomic
  output vectors  = ./hf.movecs
  use symmetry    = F
  symmetry adapt  = F


 Summary of "ao basis" -> "3-21g" (cartesian)
 ------------------------------------------------------------------------------
       Tag                 Description            Shells   Functions and Types
 ---------------- ------------------------------  ------  ---------------------
 H                           3-21g                   2        2   2s
 C                           3-21g                   5        9   3s2p
 H1                          3-21g                   2        2   2s
 O                           3-21g                   5        9   3s2p



 Forming initial guess at       0.1s


      Superposition of Atomic Density Guess
      -------------------------------------

 Sum of atomic energies:        -152.27340594

      Non-variational initial energy
      ------------------------------

 Total energy =    -153.916758
 1-e energy   =    -368.289386
 2-e energy   =     132.401686
 HOMO         =      -0.330585
 LUMO         =       0.167790


 Starting SCF solution at       0.1s



 ----------------------------------------------
         Quadratically convergent ROHF

 Convergence threshold     :          1.000E-04
 Maximum no. of iterations :          200
 Final Fock-matrix accuracy:          1.000E-07
 ----------------------------------------------


 Integral file          = ./gochem.aoints.0
 Record size in doubles =  65536        No. of integs per rec  =  43688
 Max. records in memory =     11        Max. records in file   = 116788
 No. of bits per label  =      8        No. of bits per value  =     64


 #quartets = 6.584D+04 #integrals = 2.955D+05 #direct =  0.0% #cached =100.0%


              iter       energy          gnorm     gmax       time
             ----- ------------------- --------- --------- --------
                 1     -153.1760481758  8.16D-01  1.94D-01      0.1
                 2     -153.2145361393  2.66D-01  1.06D-01      0.1
                 3     -153.2188974333  3.78D-02  1.20D-02      0.1
                 4     -153.2190081395  7.41D-04  1.98D-04      0.2
                 5     -153.2190081809  3.26D-06  7.95D-07      0.2


       Final RHF  results 
       ------------------ 

         Total SCF energy =   -153.219008180889
      One-electron energy =   -370.689273281697
      Two-electron energy =    135.499322569554
 Nuclear repulsion energy =     81.970942531254

        Time for solution =      0.1s


             Final eigenvalues
             -----------------

              1      
    1  -20.4348
    2  -11.2212
    3  -11.1564
    4   -1.3575
    5   -1.0094
    6   -0.8323
    7   -0.6894
    8   -0.6426
    9   -0.5621
   10   -0.5226
   11   -0.5182
   12   -0.4753
   13   -0.4235
   14    0.2604
   15    0.3028
   16    0.3251
   17    0.3422
   18    0.3583
   19    0.3811
   20    0.4258
   21    0.4609
   22    0.9269
   23    0.9660

                       ROHF Final Molecular Orbital Analysis
                       -------------------------------------

 Vector    4  Occ=2.000000D+00  E=-1.357536D+00
              MO Center= -9.9D-01,  2.5D-02, -4.7D-01, r^2= 6.2D-01
   Bfn.  Coefficient  Atom+Function         Bfn.  Coefficient  Atom+Function  
  ----- ------------  ---------------      ----- ------------  ---------------
    34      0.688645  8 O  s                 29     -0.220568  8 O  s          
    30      0.204109  8 O  s          

 Vector    5  Occ=2.000000D+00  E=-1.009420D+00
              MO Center=  5.4D-01, -1.4D-02,  2.5D-01, r^2= 1.7D+00
   Bfn.  Coefficient  Atom+Function         Bfn.  Coefficient  Atom+Function  
  ----- ------------  ---------------      ----- ------------  ---------------
     8      0.448615  2 C  s                 21      0.340949  5 C  s          
    34     -0.217805  8 O  s                  3     -0.166893  2 C  s          
     4      0.163853  2 C  s          

 Vector    6  Occ=2.000000D+00  E=-8.322964D-01
              MO Center=  2.9D-01, -1.5D-03,  2.9D-01, r^2= 2.5D+00
   Bfn.  Coefficient  Atom+Function         Bfn.  Coefficient  Atom+Function  
  ----- ------------  ---------------      ----- ------------  ---------------
    21      0.496740  5 C  s                  8     -0.440748  2 C  s          
    34     -0.195543  8 O  s          

 Vector    7  Occ=2.000000D+00  E=-6.893846D-01
              MO Center= -6.4D-01,  2.2D-02, -1.3D-01, r^2= 1.8D+00
   Bfn.  Coefficient  Atom+Function         Bfn.  Coefficient  Atom+Function  
  ----- ------------  ---------------      ----- ------------  ---------------
    31      0.334427  8 O  px                35      0.319151  8 O  px         
    20     -0.234771  5 C  pz                38     -0.208942  9 H  s          
    34      0.159704  8 O  s                 24     -0.157516  5 C  pz         

 Vector    8  Occ=2.000000D+00  E=-6.425964D-01
              MO Center= -1.1D-01,  1.5D-02,  2.7D-01, r^2= 1.9D+00
   Bfn.  Coefficient  Atom+Function         Bfn.  Coefficient  Atom+Function  
  ----- ------------  ---------------      ----- ------------  ---------------
    19      0.298330  5 C  py                23      0.251559  5 C  py         
    36      0.218269  8 O  py                32      0.214535  8 O  py         
     6      0.176752  2 C  py                25     -0.150506  6 H  s          
    27      0.150631  7 H  s          

 Vector    9  Occ=2.000000D+00  E=-5.621287D-01
              MO Center=  1.1D-01, -1.2D-02, -2.2D-01, r^2= 2.2D+00
   Bfn.  Coefficient  Atom+Function         Bfn.  Coefficient  Atom+Function  
  ----- ------------  ---------------      ----- ------------  ---------------
    37      0.332308  8 O  pz                33      0.293377  8 O  pz         
    18     -0.255777  5 C  px                22     -0.238686  5 C  px         
     7     -0.211428  2 C  pz                34     -0.206051  8 O  s          
     5      0.169204  2 C  px         

 Vector   10  Occ=2.000000D+00  E=-5.225627D-01
              MO Center=  1.0D+00, -2.7D-02,  2.9D-01, r^2= 2.2D+00
   Bfn.  Coefficient  Atom+Function         Bfn.  Coefficient  Atom+Function  
  ----- ------------  ---------------      ----- ------------  ---------------
     7      0.276601  2 C  pz                 2      0.262312  1 H  s          
     1      0.254096  1 H  s                 11      0.241560  2 C  pz         
     5      0.201730  2 C  px                35      0.155154  8 O  px         

 Vector   11  Occ=2.000000D+00  E=-5.182423D-01
              MO Center=  7.6D-01, -4.6D-02, -2.0D-01, r^2= 2.2D+00
   Bfn.  Coefficient  Atom+Function         Bfn.  Coefficient  Atom+Function  
  ----- ------------  ---------------      ----- ------------  ---------------
     6      0.320446  2 C  py                10      0.317407  2 C  py         
    36     -0.268205  8 O  py                32     -0.237956  8 O  py         
    14     -0.196200  4 H  s                 12      0.191879  3 H  s          
    15     -0.170106  4 H  s                 13      0.166172  3 H  s          

 Vector   12  Occ=2.000000D+00  E=-4.752629D-01
              MO Center= -2.7D-01,  7.1D-03, -1.1D-01, r^2= 2.2D+00
   Bfn.  Coefficient  Atom+Function         Bfn.  Coefficient  Atom+Function  
  ----- ------------  ---------------      ----- ------------  ---------------
    37      0.344871  8 O  pz                33      0.280800  8 O  pz         
    34     -0.256359  8 O  s                  5     -0.222849  2 C  px         
    20     -0.214220  5 C  pz                18      0.184964  5 C  px         
     9     -0.172131  2 C  px                35     -0.163976  8 O  px         

 Vector   13  Occ=2.000000D+00  E=-4.234967D-01
              MO Center= -6.3D-01,  2.4D-02, -8.2D-02, r^2= 1.9D+00
   Bfn.  Coefficient  Atom+Function         Bfn.  Coefficient  Atom+Function  
  ----- ------------  ---------------      ----- ------------  ---------------
    36      0.512829  8 O  py                32      0.410978  8 O  py         
    26      0.230049  6 H  s                 28     -0.230136  7 H  s          
    19     -0.222751  5 C  py                25      0.172935  6 H  s          
    27     -0.172972  7 H  s          

 Vector   14  Occ=0.000000D+00  E= 2.604320D-01
              MO Center= -7.5D-01,  4.5D-02,  3.8D-01, r^2= 4.3D+00
   Bfn.  Coefficient  Atom+Function         Bfn.  Coefficient  Atom+Function  
  ----- ------------  ---------------      ----- ------------  ---------------
    21      1.188859  5 C  s                 39     -0.849460  9 H  s          
    26     -0.789493  6 H  s                 28     -0.787482  7 H  s          
     2     -0.678074  1 H  s                 34      0.651164  8 O  s          
    24      0.572651  5 C  pz                 8      0.553572  2 C  s          
     9      0.399937  2 C  px                35     -0.270298  8 O  px         

 Vector   15  Occ=0.000000D+00  E= 3.028493D-01
              MO Center=  4.7D-01, -2.7D-02, -1.2D-01, r^2= 4.9D+00
   Bfn.  Coefficient  Atom+Function         Bfn.  Coefficient  Atom+Function  
  ----- ------------  ---------------      ----- ------------  ---------------
     8      1.846633  2 C  s                 13     -1.022656  3 H  s          
    15     -1.025677  4 H  s                 39      0.591466  9 H  s          
    34     -0.532974  8 O  s                 21      0.470192  5 C  s          
    22     -0.460764  5 C  px                11     -0.432298  2 C  pz         
    26     -0.394278  6 H  s                  2     -0.391415  1 H  s          

 Vector   16  Occ=0.000000D+00  E= 3.251204D-01
              MO Center=  4.5D-01, -5.2D-03,  3.5D-01, r^2= 4.1D+00
   Bfn.  Coefficient  Atom+Function         Bfn.  Coefficient  Atom+Function  
  ----- ------------  ---------------      ----- ------------  ---------------
    26     -1.006388  6 H  s                 28      1.008047  7 H  s          
    13      0.968401  3 H  s                 15     -0.967312  4 H  s          
    23     -0.843528  5 C  py                10     -0.803836  2 C  py         
    19     -0.242873  5 C  py                 6     -0.196624  2 C  py         

 Vector   17  Occ=0.000000D+00  E= 3.421728D-01
              MO Center=  3.0D-01,  1.9D-02,  8.3D-01, r^2= 4.7D+00
   Bfn.  Coefficient  Atom+Function         Bfn.  Coefficient  Atom+Function  
  ----- ------------  ---------------      ----- ------------  ---------------
    21     -1.596882  5 C  s                  8      1.478845  2 C  s          
     2     -1.168809  1 H  s                 26      1.031887  6 H  s          
    28      1.035857  7 H  s                 24     -0.599885  5 C  pz         
    11      0.500594  2 C  pz                39     -0.456270  9 H  s          
    13     -0.379748  3 H  s                 15     -0.380289  4 H  s          

 Vector   18  Occ=0.000000D+00  E= 3.583446D-01
              MO Center=  8.7D-01, -2.5D-02,  2.9D-01, r^2= 4.9D+00
   Bfn.  Coefficient  Atom+Function         Bfn.  Coefficient  Atom+Function  
  ----- ------------  ---------------      ----- ------------  ---------------
     2      1.465204  1 H  s                 11     -1.193194  2 C  pz         
    13     -0.773647  3 H  s                 15     -0.767925  4 H  s          
    39     -0.664316  9 H  s                 34      0.414020  8 O  s          
     9     -0.409356  2 C  px                21     -0.364356  5 C  s          
    35     -0.285070  8 O  px                 7     -0.267826  2 C  pz         

 Vector   19  Occ=0.000000D+00  E= 3.810911D-01
              MO Center=  5.5D-01, -1.3D-02,  3.2D-01, r^2= 4.2D+00
   Bfn.  Coefficient  Atom+Function         Bfn.  Coefficient  Atom+Function  
  ----- ------------  ---------------      ----- ------------  ---------------
    10      1.272164  2 C  py                23     -1.218788  5 C  py         
    13     -1.112445  3 H  s                 15      1.112358  4 H  s          
    26     -1.069676  6 H  s                 28      1.067986  7 H  s          
    19     -0.254410  5 C  py                 6      0.205437  2 C  py         
    36      0.199465  8 O  py         

 Vector   20  Occ=0.000000D+00  E= 4.258158D-01
              MO Center=  2.2D-01,  1.4D-03,  2.9D-01, r^2= 3.2D+00
   Bfn.  Coefficient  Atom+Function         Bfn.  Coefficient  Atom+Function  
  ----- ------------  ---------------      ----- ------------  ---------------
    22      1.707061  5 C  px                 9      1.415981  2 C  px         
     8     -0.953905  2 C  s                 21      0.772061  5 C  s          
    11     -0.678756  2 C  pz                39      0.533962  9 H  s          
    13     -0.414728  3 H  s                 15     -0.413901  4 H  s          
    37      0.333577  8 O  pz                18      0.285685  5 C  px         

 Vector   21  Occ=0.000000D+00  E= 4.609211D-01
              MO Center= -1.0D-01,  1.1D-02,  1.8D-01, r^2= 2.6D+00
   Bfn.  Coefficient  Atom+Function         Bfn.  Coefficient  Atom+Function  
  ----- ------------  ---------------      ----- ------------  ---------------
    21      1.567512  5 C  s                 24     -1.432698  5 C  pz         
     9      1.049463  2 C  px                 8     -0.944979  2 C  s          
    34     -0.730282  8 O  s                 35     -0.658196  8 O  px         
    37     -0.512343  8 O  pz                39     -0.472413  9 H  s          
    22      0.293740  5 C  px                 2     -0.223494  1 H  s          

 Vector   22  Occ=0.000000D+00  E= 9.268529D-01
              MO Center=  7.5D-01, -2.1D-02,  2.8D-01, r^2= 2.4D+00
   Bfn.  Coefficient  Atom+Function         Bfn.  Coefficient  Atom+Function  
  ----- ------------  ---------------      ----- ------------  ---------------
    10      0.827877  2 C  py                 6     -0.560524  2 C  py         
    12     -0.480140  3 H  s                 14      0.480319  4 H  s          
    23      0.468958  5 C  py                25      0.378003  6 H  s          
    27     -0.378611  7 H  s                 19     -0.316179  5 C  py         

 Vector   23  Occ=0.000000D+00  E= 9.660313D-01
              MO Center=  3.6D-01, -5.2D-03,  2.8D-01, r^2= 2.3D+00
   Bfn.  Coefficient  Atom+Function         Bfn.  Coefficient  Atom+Function  
  ----- ------------  ---------------      ----- ------------  ---------------
    11      0.711420  2 C  pz                20     -0.594850  5 C  pz         
    24      0.478200  5 C  pz                 1     -0.468723  1 H  s          
     7     -0.434711  2 C  pz                18     -0.424447  5 C  px         
    22      0.399623  5 C  px                39      0.260771  9 H  s          
    38     -0.248484  9 H  s                 12      0.237470  3 H  s          


 center of mass
 --------------
 x =  -0.07923522 y =   0.00065452 z =  -0.07613481

 moments of inertia (a.u.)
 ------------------
          66.039209883764           4.986092641766         -42.575181242102
           4.986092641766         219.682035809255           0.222886737227
         -42.575181242102           0.222886737227         176.725368783026

  Mulliken analysis of the total density
  --------------------------------------

    Atom       Charge   Shell Charges
 -----------   ------   -------------------------------------------------------
    1 H    1     0.81   0.47  0.35
    2 C    6     6.59   1.99  0.36  1.63  1.12  1.50
    3 H    1     0.78   0.46  0.32
    4 H    1     0.78   0.46  0.32
    5 C    6     6.07   1.99  0.37  1.56  0.99  1.17
    6 H    1     0.83   0.48  0.35
    7 H    1     0.83   0.48  0.35
    8 O    8     8.68   1.99  0.41  2.11  1.51  2.66
    9 H    1     0.63   0.45  0.18

       Multipole analysis of the density wrt the origin
       ------------------------------------------------

     L   x y z        total         open         nuclear
     -   - - -        -----         ----         -------
     0   0 0 0     -0.000000      0.000000     26.000000

     1   1 0 0     -0.277137      0.000000     -0.000000
     1   0 1 0      0.037135      0.000000      0.000000
     1   0 0 1      0.705768      0.000000     -0.000000

     2   2 0 0    -11.868995      0.000000    104.063860
     2   1 1 0     -0.158741      0.000000     -3.142584
     2   1 0 1     -0.792503      0.000000     22.032237
     2   0 2 0    -14.957453      0.000000     11.380175
     2   0 1 1     -0.010639      0.000000     -0.073697
     2   0 0 2    -16.172174      0.000000     34.719996


 Parallel integral file used       7 records with       0 large values


 Task  times  cpu:        0.2s     wall:        0.2s


                                NWChem Input Module
                                -------------------


                      Basis "large" -> "" (spherical)
                      -----
  H (Hydrogen)
  ------------
            Exponent  Coefficients 
       -------------- ---------------------------------------------------------
  1 S  1.30107010E+01  0.019682
  1 S  1.96225720E+00  0.137965
  1 S  4.44537960E-01  0.478319

  2 S  1.21949620E-01  1.000000

  3 P  8.00000000E-01  1.000000

  C (Carbon)
  ----------
            Exponent  Coefficients 
       -------------- ---------------------------------------------------------
  1 S  1.23840169E+03  0.005457
  1 S  1.86290050E+02  0.040638
  1 S  4.22511763E+01  0.180256
  1 S  1.16765579E+01  0.463151
  1 S  3.59305065E+00  0.440872

  2 S  4.02451474E-01  1.000000

  3 S  1.30901827E-01  1.000000

  4 P  9.46809706E+00  0.038388
  4 P  2.01035451E+00  0.211170
  4 P  5.47710047E-01  0.513282

  5 P  1.52686138E-01  1.000000

  6 D  8.00000000E-01  1.000000

  H1 (Hydrogen)
  -------------
            Exponent  Coefficients 
       -------------- ---------------------------------------------------------
  1 S  3.40613410E+01  0.006025
  1 S  5.12357460E+00  0.045021
  1 S  1.16466260E+00  0.201897

  2 S  3.27230410E-01  1.000000

  3 S  1.03072410E-01  1.000000

  4 P  8.00000000E-01  1.000000

  O (Oxygen)
  ----------
            Exponent  Coefficients 
       -------------- ---------------------------------------------------------
  1 S  2.70323826E+04  0.000217
  1 S  4.05238714E+03  0.001684
  1 S  9.22327227E+02  0.008740
  1 S  2.61240710E+02  0.035240
  1 S  8.53546414E+01  0.111535
  1 S  3.10350352E+01  0.255890

  2 S  1.22608607E+01  0.397687
  2 S  4.99870760E+00  0.246278

  3 S  1.17031082E+00  1.000000

  4 S  4.64747410E-01  1.000000

  5 S  1.85045364E-01  1.000000

  6 P  6.32749548E+01  0.006069
  6 P  1.46270494E+01  0.041913
  6 P  4.45012235E+00  0.161538
  6 P  1.52757996E+00  0.357070

  7 P  5.29351179E-01  1.000000

  8 P  1.74784213E-01  1.000000

  9 D  2.31400000E+00  1.000000

 10 D  6.45000000E-01  1.000000

 11 F  1.42800000E+00  1.000000



 Summary of "large" -> "" (spherical)
 ------------------------------------------------------------------------------
       Tag                 Description            Shells   Functions and Types
 ---------------- ------------------------------  ------  ---------------------
 H                          def2-svp                 3        5   2s1p
 C                          def2-svp                 6       14   3s2p1d
 H1                        def2-tzvp                 4        6   3s1p
 O                         def2-tzvp                11       31   5s3p2d1f




 Summary of "cd basis" -> "" (cartesian)
 ------------------------------------------------------------------------------
       Tag                 Description            Shells   Functions and Types
 ---------------- ------------------------------  ------  ---------------------
 *                  Ahlrichs Coulomb Fitting          on all atoms 


 fixed atoms                  :   2


 no springs found
                         NWChem Constraints Module
                         -------------------------
 General Information
 -------------------
 fixed atoms                  :   2


 no springs found
 no springs found


                           NWChem Geometry Optimization
                           ----------------------------


 maximum gradient threshold         (gmax) =   0.050000
 rms gradient threshold             (grms) =   0.030000
 maximum cartesian step threshold   (xmax) =   0.180000
 rms cartesian step threshold       (xrms) =   0.120000
 fixed trust radius                (trust) =   0.300000
 maximum step size to saddle      (sadstp) =   0.100000
 energy precision                  (eprec) =   1.0D-07
 maximum number of steps          (nptopt) =  200
 initial hessian option           (inhess) =    0
 line search option               (linopt) =    1
 hessian update option            (modupd) =    1
 saddle point option              (modsad) =    0
 initial eigen-mode to follow     (moddir) =    0
 initial variable to follow       (vardir) =    0
 follow first negative mode     (firstneg) =    T
 apply conjugacy                    (opcg) =    F
 source of zmatrix                         =           


          -------------------
          Energy Minimization
          -------------------


 Using diagonal initial Hessian 

          --------
          Step   0
          --------


                         Geometry "geometry" -> "geometry"
                         ---------------------------------

 Output coordinates in angstroms (scale by  1.889725989 to convert to a.u.)

  No.       Tag          Charge          X              Y              Z
 ---- ---------------- ---------- -------------- -------------- --------------
    1 H                    1.0000     1.84396154    -0.04019231     1.04553846
    2 C                    6.0000     1.22796154    -0.04719231     0.13653846
    3 H1                   1.0000     1.54196154     0.80080769    -0.48546154
    4 H                    1.0000     1.46696154    -0.96319231    -0.41946154
    5 C                    6.0000    -0.24503846     0.02880769     0.49453846
    6 H                    1.0000    -0.54103846    -0.82819231     1.13153846
    7 H                    1.0000    -0.46503846     0.95180769     1.06653846
    8 O                    8.0000    -0.98103846     0.01580769    -0.70746154
    9 H                    1.0000    -1.89603846     0.06280769    -0.46546154

      Atomic Mass 
      ----------- 

      H                  1.007825
      C                 12.000000
      H1                 1.007825
      O                 15.994910


 Effective nuclear repulsion energy (a.u.)      81.9709425313

            Nuclear Dipole moment (a.u.) 
            ----------------------------
        X                 Y               Z
 ---------------- ---------------- ----------------
    -0.0000000000     0.0000000000    -0.0000000000


                                 NWChem DFT Module
                                 -----------------


                      Basis "cd basis" -> "cd basis" (cartesian)
                      -----
  H (Hydrogen)
  ------------
            Exponent  Coefficients 
       -------------- ---------------------------------------------------------
  1 S  9.30813000E+00  0.034466
  1 S  2.30671800E+00  0.122534

  2 S  7.52012000E-01  1.000000

  3 S  2.73978000E-01  1.000000

  4 P  2.03270400E+00  1.000000

  5 P  7.90252000E-01  1.000000

  6 D  2.01954800E+00  1.000000

  C (Carbon)
  ----------
            Exponent  Coefficients 
       -------------- ---------------------------------------------------------
  1 S  5.91553927E+02  0.315820
  1 S  1.72117940E+02  0.875039
  1 S  5.47992590E+01  2.307605

  2 S  1.89590940E+01  1.000000

  3 S  7.05993000E+00  1.000000

  4 S  2.79484900E+00  1.000000

  5 S  1.15863400E+00  1.000000

  6 S  4.94324000E-01  1.000000

  7 S  2.12969000E-01  1.000000

  8 P  3.27847358E-01  1.000000

  9 P  7.86833659E-01  1.000000

 10 P  1.97101832E+00  1.000000

 11 D  4.01330100E+00  1.000000

 12 D  1.24750500E+00  1.000000

 13 D  4.08148000E-01  1.000000

 14 F  9.00000000E-01  1.000000

  H1 (Hydrogen)
  -------------
            Exponent  Coefficients 
       -------------- ---------------------------------------------------------
  1 S  9.30813000E+00  0.034466
  1 S  2.30671800E+00  0.122534

  2 S  7.52012000E-01  1.000000

  3 S  2.73978000E-01  1.000000

  4 P  2.03270400E+00  1.000000

  5 P  7.90252000E-01  1.000000

  6 D  2.01954800E+00  1.000000

  O (Oxygen)
  ----------
            Exponent  Coefficients 
       -------------- ---------------------------------------------------------
  1 S  9.57843253E+02  0.562496
  1 S  2.81967425E+02  1.491090
  1 S  9.01998320E+01  3.865477

  2 S  3.11382990E+01  1.000000

  3 S  1.14937320E+01  1.000000

  4 S  4.48404900E+00  1.000000

  5 S  1.82350400E+00  1.000000

  6 S  7.60903000E-01  1.000000

  7 S  3.20292000E-01  1.000000

  8 P  6.14708863E-01  1.000000

  9 P  1.47530127E+00  1.000000

 10 P  3.69562968E+00  1.000000

 11 D  7.65267200E+00  1.000000

 12 D  2.21786800E+00  1.000000

 13 D  6.82337000E-01  1.000000

 14 F  2.19178082E+00  1.000000



 Summary of "cd basis" -> "cd basis" (cartesian)
 ------------------------------------------------------------------------------
       Tag                 Description            Shells   Functions and Types
 ---------------- ------------------------------  ------  ---------------------
 H                  Ahlrichs Coulomb Fitting         6       15   3s2p1d
 C                  Ahlrichs Coulomb Fitting        14       44   7s3p3d1f
 H1                 Ahlrichs Coulomb Fitting         6       15   3s2p1d
 O                  Ahlrichs Coulomb Fitting        14       44   7s3p3d1f



          ---------------
          -cosmo- solvent
          ---------------
 dielectric constant -eps-  =   4.00
 charge screening approach  =   1
 screen = (eps-1)/(eps    ) =   0.75000
 -lineq- algorithm          =   1
 -bem- low  level           =   2
 -bem- high level           =   3
 -bem- from -octahedral-
 solvent radius (ang.)      =   0.500
 atomic radii = 
 --------------
    1  1.000  1.300
    2  6.000  2.000
    3  1.000  1.300
    4  1.000  1.300
    5  6.000  2.000
    6  1.000  1.300
    7  1.000  1.300
    8  8.000  1.720
    9  1.000  1.300

 solvent accessible surface
 --------------------------

 ---------- ATOMIC COORDINATES (A.U.) ------------ VDWR(ANG.) --
     1    3.48458204   -0.07595245    1.97578120     1.300
     2    2.32051083   -0.08918053    0.25802028     2.000
     3    2.91388479    1.51330711   -0.91738929     1.300
     4    2.77215534   -1.82016954   -0.79266737     1.300
     5   -0.46305555    0.05443864    0.93454218     2.000
     6   -1.02241444   -1.56505653    2.13829764     1.300
     7   -0.87879527    1.79865573    2.01546545     1.300
     8   -1.85389388    0.02987221   -1.33690846     1.720
     9   -3.58299316    0.11868933   -0.87959477     1.300
 number of segments per atom =         32
 number of   points per atom =        128
 atom (   nspa,  nppa )
 ----------------------
    1 (     10,    32 )      32
    2 (     15,    38 )      38
    3 (     12,    35 )      35
    4 (     11,    34 )      34
    5 (     11,    27 )      27
    6 (     12,    35 )      35
    7 (     11,    36 )      36
    8 (     14,    50 )      50
    9 (     16,    40 )      40
 number of -cosmo- surface points =      112
 molecular surface =     75.222 angstrom**2
 molecular volume  =     40.585 angstrom**3
 G(cav/disp)       =      1.236 kcal/mol
 ...... end of -cosmo- initialization ......


  int_init: cando_txs set to always be  F
  Caching 1-el integrals 
  itol2e modified to match energy
  convergence criterion.
  tol_rho modified to match energy
  convergence criterion.

            General Information
            -------------------
          SCF calculation type: DFT
          Wavefunction type:  closed shell.
          No. of atoms     :     9
          No. of electrons :    26
           Alpha electrons :    13
            Beta electrons :    13
          Charge           :     0
          Spin multiplicity:     1
          Use of symmetry is: off; symmetry adaption is: off
          Maximum number of iterations: 200
          AO basis - number of functions:    90
                     number of shells:    42
          A Charge density fitting basis will be used.
          CD basis - number of functions:   222
                     number of shells:    78
          Convergence on energy requested: 5.00D-08
          Convergence on density requested: 5.00D-09
          Convergence on gradient requested: 1.00D-05

              XC Information
              --------------
                  TPSS metaGGA Exchange Functional  1.000          
             TPSS03 metaGGA Correlation Functional  1.000          

             Grid Information
             ----------------
          Grid used for XC integration:  xfine     
          Radial quadrature: Mura-Knowles        
          Angular quadrature: Lebedev. 
          Tag              B.-S. Rad. Rad. Pts. Rad. Cut. Ang. Pts.
          ---              ---------- --------- --------- ---------
          H                   0.35      100          11.0      1202
          C                   0.70      100          10.0      1454
          H1                  0.35      100          11.0      1202
          O                   0.60      100          10.0      1454
          Grid pruning is: on 
          Number of quadrature shells:   900
          Spatial weights used:  Erf1

          Convergence Information
          -----------------------
          Convergence aids based upon iterative change in 
          total energy or number of iterations. 
          Levelshifting, if invoked, occurs when the 
          HOMO/LUMO gap drops below (HL_TOL): 1.00D-02
          DIIS, if invoked, will attempt to extrapolate 
          using up to (NFOCK): 10 stored Fock matrices.

                    Damping( 0%)  Levelshifting(0.5)       DIIS
                  --------------- ------------------- ---------------
          dE  on:    start            ASAP                start   
          dE off:    2 iters        200 iters           200 iters 


      Screening Tolerance Information
      -------------------------------
          Density screening/tol_rho: 5.00D-11
          AO Gaussian exp screening on grid/accAOfunc:  17
          CD Gaussian exp screening on grid/accCDfunc:  20
          XC Gaussian exp screening on grid/accXCfunc:  20
          Schwarz screening/accCoul: 1.00D-08


    Orbital projection guess
    ------------------------

 Filename           = ./hf.movecs
 Old title          = ""
 Old basis size     =    39
 Old no. of sets    =     1
 Old no. of MOs     =    39
 Old basis name     = 3-21g
 Basis name on file = 3-21g

  int_init: cando_txs set to always be  F
  int_init: cando_txs set to always be  F
   Time after variat. SCF:      0.3

      3 Center 2 Electron Integral Information
      ----------------------------------------
          Maximum number of 3-center 2e- integrals is:         1798200.
            This is reduced with Schwarz screening to:         1071372.
            Incore requires a per proc buffer size of:         1118980.
                  The minimum integral buffer size is:           10878
          Minimum dble words available (all nodes) is:        65533383
                   This is reduced (for later use) to:        64805993
                             Suggested buffer size is:         1118980

           1.119 MW buffer allocated for incore 3-center 
          2e- integral storage on stack. 
          The percent of 3c 2e- integrals held in-core is: 100.00

   Time prior to 1st pass:      0.6

 Grid_pts file          = ./gochem.gridpts.0
 Record size in doubles =  12289        No. of grid_pts per rec  =   3070
 Max. records in memory =    470        Max. recs in file   =    622805


           Memory utilization after 1st SCF pass: 
           Heap Space remaining (MW):       26.99            26989674
          Stack Space remaining (MW):       31.65            31646552

   convergence    iter        energy       DeltaE   RMS-Dens  Diis-err    time
 ---------------- ----- ----------------- --------- --------- ---------  ------
     COSMO solvation phase
 d= 0,ls=0.0,diis     1   -154.9122515938 -2.37D+02  1.77D-02  2.27D+00    11.1
 d= 0,ls=0.0,diis     2   -155.0326020912 -1.20D-01  4.28D-03  1.25D-01    20.9
 d= 0,ls=0.0,diis     3   -155.0334980458 -8.96D-04  2.48D-03  9.52D-02    30.7
 d= 0,ls=0.0,diis     4   -155.0454471834 -1.19D-02  3.67D-04  3.39D-03    40.4
 d= 0,ls=0.0,diis     5   -155.0458236899 -3.77D-04  8.87D-05  1.49D-04    50.0
  Resetting Diis
 d= 0,ls=0.0,diis     6   -155.0458342644 -1.06D-05  2.83D-05  3.85D-05    59.6
 d= 0,ls=0.0,diis     7   -155.0458373796 -3.12D-06  4.19D-06  9.59D-08    69.2
 d= 0,ls=0.0,diis     8   -155.0458373835 -3.92D-09  1.90D-06  6.75D-08    78.8
 d= 0,ls=0.0,diis     9   -155.0458373893 -5.78D-09  5.52D-07  1.26D-08    88.4
 d= 0,ls=0.0,diis    10   -155.0458373903 -1.00D-09  1.17D-07  1.85D-10    98.2
 d= 0,ls=0.0,diis    11   -155.0458373896  7.17D-10  3.85D-08  3.34D-11   107.9
 d= 0,ls=0.0,diis    12   -155.0458373897 -1.86D-10  5.22D-09  3.88D-13   117.6
 d= 0,ls=0.0,diis    13   -155.0458373892  5.68D-10  9.64D-10  9.65D-15   127.4


         Total DFT energy =     -155.045837389176
      One electron energy =     -372.110332146612
           Coulomb energy =      156.782836262924
    Exchange-Corr. energy =      -21.718622439652
 Nuclear repulsion energy =       81.970942531254

    Dispersion correction =       -0.002538891519

 Numeric. integr. density =       26.000000027928

     Total iterative time =    126.8s


                  COSMO solvation results
                  -----------------------
  
     skipped: no gas phase energy
                 sol phase energy =      -155.0458373892

                       DFT Final Molecular Orbital Analysis
                       ------------------------------------

 Vector    3  Occ=2.000000D+00  E=-9.989482D+00
              MO Center=  1.2D+00, -4.7D-02,  1.4D-01, r^2= 2.8D-02
   Bfn.  Coefficient  Atom+Function         Bfn.  Coefficient  Atom+Function  
  ----- ------------  ---------------      ----- ------------  ---------------
     6      0.988700  2 C  s          

 Vector    4  Occ=2.000000D+00  E=-9.582185D-01
              MO Center= -1.0D+00,  2.5D-02, -4.7D-01, r^2= 6.0D-01
   Bfn.  Coefficient  Atom+Function         Bfn.  Coefficient  Atom+Function  
  ----- ------------  ---------------      ----- ------------  ---------------
    58      0.403828  8 O  s                 57      0.326707  8 O  s          
    56     -0.220828  8 O  s                 86      0.202732  9 H  s          
    32      0.177365  5 C  s          

 Vector    5  Occ=2.000000D+00  E=-6.829148D-01
              MO Center=  5.0D-01, -1.2D-02,  2.2D-01, r^2= 1.7D+00
   Bfn.  Coefficient  Atom+Function         Bfn.  Coefficient  Atom+Function  
  ----- ------------  ---------------      ----- ------------  ---------------
     7      0.389302  2 C  s                 32      0.324480  5 C  s          
     6     -0.198043  2 C  s                 31     -0.158373  5 C  s          

 Vector    6  Occ=2.000000D+00  E=-5.533129D-01
              MO Center=  2.9D-01, -3.3D-03,  2.1D-01, r^2= 2.5D+00
   Bfn.  Coefficient  Atom+Function         Bfn.  Coefficient  Atom+Function  
  ----- ------------  ---------------      ----- ------------  ---------------
    32      0.357043  5 C  s                  7     -0.309925  2 C  s          
    31     -0.164410  5 C  s                 45      0.164252  6 H  s          
    50      0.162657  7 H  s                 26     -0.152973  4 H  s          

 Vector    7  Occ=2.000000D+00  E=-4.720877D-01
              MO Center= -6.3D-01,  2.5D-02, -2.8D-02, r^2= 1.8D+00
   Bfn.  Coefficient  Atom+Function         Bfn.  Coefficient  Atom+Function  
  ----- ------------  ---------------      ----- ------------  ---------------
    60     -0.308023  8 O  px                36      0.300657  5 C  pz         
    86      0.286117  9 H  s                 63     -0.217209  8 O  px         

 Vector    8  Occ=2.000000D+00  E=-4.178228D-01
              MO Center=  3.7D-02,  1.1D-02,  3.2D-01, r^2= 2.0D+00
   Bfn.  Coefficient  Atom+Function         Bfn.  Coefficient  Atom+Function  
  ----- ------------  ---------------      ----- ------------  ---------------
    35      0.365566  5 C  py                10      0.239394  2 C  py         
    50      0.218534  7 H  s                 45     -0.216341  6 H  s          

 Vector    9  Occ=2.000000D+00  E=-3.638448D-01
              MO Center=  8.2D-02, -8.4D-03, -1.9D-01, r^2= 2.2D+00
   Bfn.  Coefficient  Atom+Function         Bfn.  Coefficient  Atom+Function  
  ----- ------------  ---------------      ----- ------------  ---------------
    34      0.340718  5 C  px                62     -0.268018  8 O  pz         
     9     -0.242835  2 C  px                11      0.216694  2 C  pz         
    65     -0.215348  8 O  pz                37      0.162685  5 C  px         
    26     -0.151143  4 H  s          

 Vector   10  Occ=2.000000D+00  E=-3.395530D-01
              MO Center=  1.1D+00, -3.3D-02,  3.3D-01, r^2= 1.9D+00
   Bfn.  Coefficient  Atom+Function         Bfn.  Coefficient  Atom+Function  
  ----- ------------  ---------------      ----- ------------  ---------------
     1      0.380899  1 H  s                 11      0.355969  2 C  pz         
     9      0.220862  2 C  px                 2      0.170794  1 H  s          

 Vector   11  Occ=2.000000D+00  E=-3.245483D-01
              MO Center=  7.8D-01, -4.9D-02, -5.8D-02, r^2= 2.3D+00
   Bfn.  Coefficient  Atom+Function         Bfn.  Coefficient  Atom+Function  
  ----- ------------  ---------------      ----- ------------  ---------------
    10      0.378691  2 C  py                26     -0.291910  4 H  s          
    35     -0.193608  5 C  py                21      0.178625  3 H  s          
    13      0.171884  2 C  py                61     -0.159681  8 O  py         

 Vector   12  Occ=2.000000D+00  E=-2.948529D-01
              MO Center= -3.4D-01,  8.7D-03, -1.7D-01, r^2= 2.1D+00
   Bfn.  Coefficient  Atom+Function         Bfn.  Coefficient  Atom+Function  
  ----- ------------  ---------------      ----- ------------  ---------------
    62     -0.274912  8 O  pz                 9      0.255359  2 C  px         
    36      0.249017  5 C  pz                65     -0.214490  8 O  pz         
    59      0.208109  8 O  s                 86     -0.197917  9 H  s          
    34     -0.194281  5 C  px                50      0.162699  7 H  s          
    45      0.160996  6 H  s                 68     -0.160690  8 O  pz         

 Vector   13  Occ=2.000000D+00  E=-2.297828D-01
              MO Center= -8.0D-01,  2.5D-02, -2.7D-01, r^2= 1.6D+00
   Bfn.  Coefficient  Atom+Function         Bfn.  Coefficient  Atom+Function  
  ----- ------------  ---------------      ----- ------------  ---------------
    61      0.420855  8 O  py                64      0.348388  8 O  py         
    67      0.317762  8 O  py                45      0.215916  6 H  s          
    50     -0.216246  7 H  s                 35     -0.196324  5 C  py         

 Vector   14  Occ=0.000000D+00  E= 4.319904D-02
              MO Center= -1.2D+00,  8.1D-02,  1.8D-01, r^2= 4.9D+00
   Bfn.  Coefficient  Atom+Function         Bfn.  Coefficient  Atom+Function  
  ----- ------------  ---------------      ----- ------------  ---------------
    87      1.241164  9 H  s                 33     -0.932122  5 C  s          
    59     -0.901755  8 O  s                 51      0.656534  7 H  s          
    46      0.652318  6 H  s                  8     -0.581883  2 C  s          
    39     -0.484476  5 C  pz                 2      0.471536  1 H  s          
    66      0.343568  8 O  px                22      0.283228  3 H  s          

 Vector   15  Occ=0.000000D+00  E= 7.138230D-02
              MO Center=  8.2D-01,  2.6D-01, -7.8D-02, r^2= 6.3D+00
   Bfn.  Coefficient  Atom+Function         Bfn.  Coefficient  Atom+Function  
  ----- ------------  ---------------      ----- ------------  ---------------
     8      2.168367  2 C  s                 22     -1.197535  3 H  s          
    27     -0.857901  4 H  s                 59     -0.753131  8 O  s          
     2     -0.746072  1 H  s                 87      0.743156  9 H  s          
    33      0.508766  5 C  s                 37     -0.476362  5 C  px         
    51     -0.426884  7 H  s                 46     -0.288188  6 H  s          

 Vector   16  Occ=0.000000D+00  E= 1.006895D-01
              MO Center=  2.4D-01, -2.8D-01,  4.4D-01, r^2= 5.7D+00
   Bfn.  Coefficient  Atom+Function         Bfn.  Coefficient  Atom+Function  
  ----- ------------  ---------------      ----- ------------  ---------------
    46      1.579628  6 H  s                 33     -1.209660  5 C  s          
    22     -1.099523  3 H  s                 38      0.729440  5 C  py         
    27      0.714222  4 H  s                 13      0.515819  2 C  py         
    59      0.506399  8 O  s                 51     -0.400382  7 H  s          
    87     -0.329350  9 H  s                 35      0.260059  5 C  py         

 Vector   17  Occ=0.000000D+00  E= 1.091809D-01
              MO Center= -6.1D-03,  3.3D-01,  5.1D-01, r^2= 6.1D+00
   Bfn.  Coefficient  Atom+Function         Bfn.  Coefficient  Atom+Function  
  ----- ------------  ---------------      ----- ------------  ---------------
    33      2.551697  5 C  s                 51     -1.725028  7 H  s          
     8     -1.659815  2 C  s                 27      1.107617  4 H  s          
    59     -0.872116  8 O  s                 87      0.556717  9 H  s          
    46     -0.547732  6 H  s                 22      0.457577  3 H  s          
    38      0.437264  5 C  py                68     -0.350828  8 O  pz         

 Vector   18  Occ=0.000000D+00  E= 1.300076D-01
              MO Center=  1.6D+00, -6.7D-02,  9.9D-01, r^2= 3.8D+00
   Bfn.  Coefficient  Atom+Function         Bfn.  Coefficient  Atom+Function  
  ----- ------------  ---------------      ----- ------------  ---------------
     2      2.074239  1 H  s                 14     -1.149109  2 C  pz         
    33      0.959883  5 C  s                  8     -0.791384  2 C  s          
    46     -0.616619  6 H  s                 22     -0.551235  3 H  s          
    27     -0.514316  4 H  s                 51     -0.372467  7 H  s          
    11     -0.338393  2 C  pz                12     -0.297569  2 C  px         

 Vector   19  Occ=0.000000D+00  E= 1.514480D-01
              MO Center=  6.5D-01, -2.1D-01,  1.9D-01, r^2= 5.6D+00
   Bfn.  Coefficient  Atom+Function         Bfn.  Coefficient  Atom+Function  
  ----- ------------  ---------------      ----- ------------  ---------------
    27      1.527509  4 H  s                 46     -1.206172  6 H  s          
    13      1.125107  2 C  py                51      1.115126  7 H  s          
    22     -1.067612  3 H  s                 38     -1.045882  5 C  py         
     8     -0.342492  2 C  s                 10      0.292063  2 C  py         
    35     -0.288398  5 C  py                67      0.175623  8 O  py         

 Vector   20  Occ=0.000000D+00  E= 1.740715D-01
              MO Center= -6.6D-01,  3.0D-02,  2.1D-01, r^2= 2.9D+00
   Bfn.  Coefficient  Atom+Function         Bfn.  Coefficient  Atom+Function  
  ----- ------------  ---------------      ----- ------------  ---------------
    39     -1.636650  5 C  pz                33      1.537223  5 C  s          
    87     -1.117102  9 H  s                 59     -1.086530  8 O  s          
    66     -0.869498  8 O  px                37     -0.827175  5 C  px         
    68     -0.820505  8 O  pz                14      0.479218  2 C  pz         
    36     -0.316760  5 C  pz                27      0.248054  4 H  s          

 Vector   21  Occ=0.000000D+00  E= 2.079227D-01
              MO Center=  6.4D-01, -2.0D-02,  1.7D-01, r^2= 3.0D+00
   Bfn.  Coefficient  Atom+Function         Bfn.  Coefficient  Atom+Function  
  ----- ------------  ---------------      ----- ------------  ---------------
    33      2.743935  5 C  s                  8     -2.322551  2 C  s          
    12      1.990510  2 C  px                37      1.732371  5 C  px         
    39     -1.019471  5 C  pz                59     -0.649541  8 O  s          
    66     -0.451719  8 O  px                14     -0.429307  2 C  pz         
    34      0.347030  5 C  px                 9      0.307717  2 C  px         

 Vector   22  Occ=0.000000D+00  E= 3.185995D-01
              MO Center=  1.1D+00, -5.4D-03,  8.5D-02, r^2= 3.5D+00
   Bfn.  Coefficient  Atom+Function         Bfn.  Coefficient  Atom+Function  
  ----- ------------  ---------------      ----- ------------  ---------------
    21     -1.547281  3 H  s                  8      1.472301  2 C  s          
    33     -1.243206  5 C  s                 13      0.952238  2 C  py         
    39      0.686501  5 C  pz                59      0.638719  8 O  s          
    14     -0.610495  2 C  pz                22      0.536516  3 H  s          
    37     -0.375902  5 C  px                 2     -0.354187  1 H  s          

 Vector   23  Occ=0.000000D+00  E= 4.011632D-01
              MO Center= -6.6D-01, -2.0D-02, -9.9D-01, r^2= 3.0D+00
   Bfn.  Coefficient  Atom+Function         Bfn.  Coefficient  Atom+Function  
  ----- ------------  ---------------      ----- ------------  ---------------
    68      1.237447  8 O  pz                33     -1.023397  5 C  s          
    65     -0.596849  8 O  pz                58      0.399306  8 O  s          
    62     -0.262801  8 O  pz                 9     -0.258378  2 C  px         
    37     -0.239214  5 C  px                14      0.223530  2 C  pz         
     1     -0.209992  1 H  s                 12      0.180835  2 C  px         

 Vector   24  Occ=0.000000D+00  E= 4.056825D-01
              MO Center=  3.3D-01,  8.6D-02, -1.1D-01, r^2= 3.8D+00
   Bfn.  Coefficient  Atom+Function         Bfn.  Coefficient  Atom+Function  
  ----- ------------  ---------------      ----- ------------  ---------------
    33      1.050989  5 C  s                 39     -0.905044  5 C  pz         
    59     -0.892187  8 O  s                 66     -0.856600  8 O  px         
    26      0.619097  4 H  s                  8     -0.576274  2 C  s          
    14      0.564119  2 C  pz                67      0.416198  8 O  py         
    68     -0.397520  8 O  pz                13      0.357841  2 C  py         

 Vector   25  Occ=0.000000D+00  E= 4.310928D-01
              MO Center= -6.2D-01,  3.5D-02, -5.3D-01, r^2= 3.4D+00
   Bfn.  Coefficient  Atom+Function         Bfn.  Coefficient  Atom+Function  
  ----- ------------  ---------------      ----- ------------  ---------------
    67      1.135480  8 O  py                64     -0.616437  8 O  py         
    66      0.491961  8 O  px                13     -0.408496  2 C  py         
    59      0.387036  8 O  s                 39      0.289516  5 C  pz         
    33     -0.281986  5 C  s                 61     -0.282699  8 O  py         
    26     -0.256988  4 H  s                  1      0.208023  1 H  s          

 Vector   26  Occ=0.000000D+00  E= 4.443825D-01
              MO Center= -1.9D-01,  1.4D-02,  5.7D-02, r^2= 3.8D+00
   Bfn.  Coefficient  Atom+Function         Bfn.  Coefficient  Atom+Function  
  ----- ------------  ---------------      ----- ------------  ---------------
    32      0.673198  5 C  s                 39      0.640436  5 C  pz         
    68     -0.642832  8 O  pz                 7      0.467637  2 C  s          
    33     -0.394073  5 C  s                 12      0.388732  2 C  px         
    37     -0.375152  5 C  px                86     -0.355357  9 H  s          
     9     -0.341696  2 C  px                45     -0.334005  6 H  s          

 Vector   27  Occ=0.000000D+00  E= 4.787486D-01
              MO Center= -1.5D-01,  2.5D-02,  2.1D-01, r^2= 3.0D+00
   Bfn.  Coefficient  Atom+Function         Bfn.  Coefficient  Atom+Function  
  ----- ------------  ---------------      ----- ------------  ---------------
    33      3.575373  5 C  s                 59     -2.389513  8 O  s          
    39     -1.756643  5 C  pz                 8     -1.438529  2 C  s          
    12      0.997496  2 C  px                68     -0.957876  8 O  pz         
    32     -0.754903  5 C  s                 37     -0.616003  5 C  px         
    36      0.612141  5 C  pz                58      0.451566  8 O  s          

 Vector   28  Occ=0.000000D+00  E= 5.726665D-01
              MO Center= -8.1D-01,  1.6D-01, -8.9D-02, r^2= 4.4D+00
   Bfn.  Coefficient  Atom+Function         Bfn.  Coefficient  Atom+Function  
  ----- ------------  ---------------      ----- ------------  ---------------
    33      2.359797  5 C  s                 87     -1.696470  9 H  s          
     8     -1.619699  2 C  s                 59      1.501318  8 O  s          
    66     -1.325392  8 O  px                58     -0.798650  8 O  s          
    37      0.743155  5 C  px                12      0.701046  2 C  px         
    32     -0.692483  5 C  s                  7      0.578310  2 C  s          


 center of mass
 --------------
 x =  -0.07923522 y =   0.00065452 z =  -0.07613481

 moments of inertia (a.u.)
 ------------------
          66.039209883764           4.986092641766         -42.575181242102
           4.986092641766         219.682035809255           0.222886737227
         -42.575181242102           0.222886737227         176.725368783026

     Multipole analysis of the density
     ---------------------------------

     L   x y z        total         alpha         beta         nuclear
     -   - - -        -----         -----         ----         -------
     0   0 0 0     -0.000000    -13.000000    -13.000000     26.000000

     1   1 0 0     -0.272087     -0.136043     -0.136043     -0.000000
     1   0 1 0      0.050005      0.025003      0.025003      0.000000
     1   0 0 1      0.688187      0.344093      0.344093     -0.000000

     2   2 0 0    -11.843144    -57.953502    -57.953502    104.063860
     2   1 1 0     -0.122219      1.510182      1.510182     -3.142584
     2   1 0 1     -0.667581    -11.349909    -11.349909     22.032237
     2   0 2 0    -15.007624    -13.193900    -13.193900     11.380175
     2   0 1 1     -0.020291      0.026703      0.026703     -0.073697
     2   0 0 2    -16.074755    -25.397376    -25.397376     34.719996

  int_init: cando_txs set to always be  F
  intd_init: cando_txs set to always be  F


                            NWChem DFT Gradient Module
                            --------------------------



  charge          =   0.00
  wavefunction    = closed shell

  int_init: cando_txs set to always be  F
  intd_init: cando_txs set to always be  F


                         DFT ENERGY GRADIENTS

    atom               coordinates                        gradient
                 x          y          z           x          y          z
   1 H       3.484582  -0.075952   1.975781   -0.002171  -0.000031  -0.003987
   2 C       2.320511  -0.089181   0.258020    0.000000   0.000000   0.000000
   3 H1      2.913885   1.513307  -0.917389    0.002577  -0.000948  -0.000641
   4 H       2.772155  -1.820170  -0.792667    0.001509   0.004796   0.001797
   5 C      -0.463056   0.054439   0.934542   -0.009926   0.000066  -0.011529
   6 H      -1.022414  -1.565057   2.138298   -0.001725   0.001464  -0.001844
   7 H      -0.878795   1.798656   2.015465   -0.001644  -0.001511  -0.001807
   8 O      -1.853894   0.029872  -1.336908   -0.010666   0.001263   0.021565
   9 H      -3.582993   0.118689  -0.879595    0.026750  -0.001259  -0.002696

                 ----------------------------------------
                 |  Time  |  1-e(secs)   |  2-e(secs)   |
                 ----------------------------------------
                 |  CPU   |       0.35   |       0.00   |
                 ----------------------------------------
                 |  WALL  |       0.35   |       0.00   |
                 ----------------------------------------

@ Step       Energy      Delta E   Gmax     Grms     Xrms     Xmax   Walltime
@ ---- ---------------- -------- -------- -------- -------- -------- --------
@    0    -155.04583739  0.0D+00  0.02675  0.00772  0.00000  0.00000    147.2
                                     ok       ok       ok       ok  


                                 NWChem DFT Module
                                 -----------------



          ---------------
          -cosmo- solvent
          ---------------
 dielectric constant -eps-  =   4.00
 charge screening approach  =   1
 screen = (eps-1)/(eps    ) =   0.75000
 -lineq- algorithm          =   1
 -bem- low  level           =   2
 -bem- high level           =   3
 -bem- from -octahedral-
 solvent radius (ang.)      =   0.500
 atomic radii = 
 --------------
    1  1.000  1.300
    2  6.000  2.000
    3  1.000  1.300
    4  1.000  1.300
    5  6.000  2.000
    6  1.000  1.300
    7  1.000  1.300
    8  8.000  1.720
    9  1.000  1.300

 solvent accessible surface
 --------------------------

 ---------- ATOMIC COORDINATES (A.U.) ------------ VDWR(ANG.) --
     1    3.48074520   -0.07672679    1.99088408     1.300
     2    2.32051083   -0.08918053    0.25802028     2.000
     3    2.89876984    1.52526026   -0.90726877     1.300
     4    2.75816924   -1.84197470   -0.78571622     1.300
     5   -0.46498564    0.05230402    0.93001015     2.000
     6   -1.01580683   -1.57175074    2.13476765     1.300
     7   -0.87395053    1.79831329    2.01486674     1.300
     8   -1.86103313    0.02941226   -1.38335601     1.720
     9   -3.64478159    0.11882243   -0.88329952     1.300
 number of segments per atom =         32
 number of   points per atom =        128
 atom (   nspa,  nppa )
 ----------------------
    1 (     10,    32 )      32
    2 (     15,    38 )      38
    3 (     12,    34 )      34
    4 (     11,    34 )      34
    5 (     11,    25 )      25
    6 (     12,    35 )      35
    7 (     11,    36 )      36
    8 (     14,    50 )      50
    9 (     16,    42 )      42
 number of -cosmo- surface points =      112
 molecular surface =     74.602 angstrom**2
 molecular volume  =     40.133 angstrom**3
 G(cav/disp)       =      1.233 kcal/mol
 ...... end of -cosmo- initialization ......


  int_init: cando_txs set to always be  F
  Caching 1-el integrals 
  itol2e modified to match energy
  convergence criterion.

            General Information
            -------------------
          SCF calculation type: DFT
          Wavefunction type:  closed shell.
          No. of atoms     :     9
          No. of electrons :    26
           Alpha electrons :    13
            Beta electrons :    13
          Charge           :     0
          Spin multiplicity:     1
          Use of symmetry is: off; symmetry adaption is: off
          Maximum number of iterations: 200
          AO basis - number of functions:    90
                     number of shells:    42
          A Charge density fitting basis will be used.
          CD basis - number of functions:   222
                     number of shells:    78
          Convergence on energy requested: 5.00D-08
          Convergence on density requested: 5.00D-09
          Convergence on gradient requested: 1.00D-05

              XC Information
              --------------
                  TPSS metaGGA Exchange Functional  1.000          
             TPSS03 metaGGA Correlation Functional  1.000          

             Grid Information
             ----------------
          Grid used for XC integration:  xfine     
          Radial quadrature: Mura-Knowles        
          Angular quadrature: Lebedev. 
          Tag              B.-S. Rad. Rad. Pts. Rad. Cut. Ang. Pts.
          ---              ---------- --------- --------- ---------
          H                   0.35      100          11.0      1202
          C                   0.70      100          10.0      1454
          H1                  0.35      100          11.0      1202
          O                   0.60      100          10.0      1454
          Grid pruning is: on 
          Number of quadrature shells:   900
          Spatial weights used:  Erf1

          Convergence Information
          -----------------------
          Convergence aids based upon iterative change in 
          total energy or number of iterations. 
          Levelshifting, if invoked, occurs when the 
          HOMO/LUMO gap drops below (HL_TOL): 1.00D-02
          DIIS, if invoked, will attempt to extrapolate 
          using up to (NFOCK): 10 stored Fock matrices.

                    Damping( 0%)  Levelshifting(0.5)       DIIS
                  --------------- ------------------- ---------------
          dE  on:    start            ASAP                start   
          dE off:    2 iters        200 iters           200 iters 


      Screening Tolerance Information
      -------------------------------
          Density screening/tol_rho: 5.00D-11
          AO Gaussian exp screening on grid/accAOfunc:  17
          CD Gaussian exp screening on grid/accCDfunc:  20
          XC Gaussian exp screening on grid/accXCfunc:  20
          Schwarz screening/accCoul: 1.00D-08


 Loading old vectors from job with title :



   Time after variat. SCF:    146.8

      3 Center 2 Electron Integral Information
      ----------------------------------------
          Maximum number of 3-center 2e- integrals is:         1798200.
            This is reduced with Schwarz screening to:         1071372.
            Incore requires a per proc buffer size of:         1118980.
                  The minimum integral buffer size is:           10878
          Minimum dble words available (all nodes) is:        65532897
                   This is reduced (for later use) to:        64258803
                             Suggested buffer size is:         1118980

           1.119 MW buffer allocated for incore 3-center 
          2e- integral storage on stack. 
          The percent of 3c 2e- integrals held in-core is: 100.00

   Time prior to 1st pass:    147.1

 Grid_pts file          = ./gochem.gridpts.0
 Record size in doubles =  12289        No. of grid_pts per rec  =   3070
 Max. records in memory =    470        Max. recs in file   =    622633


           Memory utilization after 1st SCF pass: 
           Heap Space remaining (MW):       26.99            26989575
          Stack Space remaining (MW):       31.65            31646552

   convergence    iter        energy       DeltaE   RMS-Dens  Diis-err    time
 ---------------- ----- ----------------- --------- --------- ---------  ------
     COSMO solvation phase
 d= 0,ls=0.0,diis     1   -155.0465438510 -2.36D+02  8.82D-04  6.29D-03   157.6
 d= 0,ls=0.0,diis     2   -155.0471164464 -5.73D-04  2.31D-04  5.33D-04   167.3
 d= 0,ls=0.0,diis     3   -155.0470824945  3.40D-05  1.48D-04  9.28D-04   177.1
 d= 0,ls=0.0,diis     4   -155.0471587345 -7.62D-05  2.33D-05  1.61D-05   186.8
 d= 0,ls=0.0,diis     5   -155.0471601571 -1.42D-06  6.36D-06  3.58D-07   196.5
 d= 0,ls=0.0,diis     6   -155.0471601894 -3.24D-08  2.31D-06  1.07D-07   206.2
 d= 0,ls=0.0,diis     7   -155.0471602032 -1.38D-08  1.52D-07  3.90D-10   216.0
 d= 0,ls=0.0,diis     8   -155.0471602025  6.64D-10  3.29D-08  1.45D-11   225.7
 d= 0,ls=0.0,diis     9   -155.0471602025  4.07D-11  9.36D-09  1.04D-12   235.4
 d= 0,ls=0.0,diis    10   -155.0471602024  4.19D-11  3.02D-09  1.78D-13   245.1


         Total DFT energy =     -155.047160202427
      One electron energy =     -370.989670978249
           Coulomb energy =      156.223332521836
    Exchange-Corr. energy =      -21.688808386551
 Nuclear repulsion energy =       81.375054513228

    Dispersion correction =       -0.002564708115

 Numeric. integr. density =       26.000000025875

     Total iterative time =     98.0s


                  COSMO solvation results
                  -----------------------
  
     skipped: no gas phase energy
                 sol phase energy =      -155.0471602024

                       DFT Final Molecular Orbital Analysis
                       ------------------------------------

 Vector    3  Occ=2.000000D+00  E=-9.991116D+00
              MO Center=  1.2D+00, -4.7D-02,  1.4D-01, r^2= 2.8D-02
   Bfn.  Coefficient  Atom+Function         Bfn.  Coefficient  Atom+Function  
  ----- ------------  ---------------      ----- ------------  ---------------
     6      0.988710  2 C  s          

 Vector    4  Occ=2.000000D+00  E=-9.467734D-01
              MO Center= -9.9D-01,  2.4D-02, -4.9D-01, r^2= 6.1D-01
   Bfn.  Coefficient  Atom+Function         Bfn.  Coefficient  Atom+Function  
  ----- ------------  ---------------      ----- ------------  ---------------
    58      0.414435  8 O  s                 57      0.326633  8 O  s          
    56     -0.221236  8 O  s                 86      0.185567  9 H  s          
    32      0.177494  5 C  s          

 Vector    5  Occ=2.000000D+00  E=-6.817822D-01
              MO Center=  5.2D-01, -1.1D-02,  2.3D-01, r^2= 1.7D+00
   Bfn.  Coefficient  Atom+Function         Bfn.  Coefficient  Atom+Function  
  ----- ------------  ---------------      ----- ------------  ---------------
     7      0.392505  2 C  s                 32      0.323512  5 C  s          
     6     -0.199165  2 C  s                 31     -0.157677  5 C  s          

 Vector    6  Occ=2.000000D+00  E=-5.502236D-01
              MO Center=  3.0D-01, -1.3D-03,  2.5D-01, r^2= 2.5D+00
   Bfn.  Coefficient  Atom+Function         Bfn.  Coefficient  Atom+Function  
  ----- ------------  ---------------      ----- ------------  ---------------
    32      0.364035  5 C  s                  7     -0.307178  2 C  s          
    45      0.172148  6 H  s                 50      0.170298  7 H  s          
    31     -0.167547  5 C  s                 26     -0.150914  4 H  s          

 Vector    7  Occ=2.000000D+00  E=-4.650517D-01
              MO Center= -6.3D-01,  2.3D-02, -8.0D-02, r^2= 1.8D+00
   Bfn.  Coefficient  Atom+Function         Bfn.  Coefficient  Atom+Function  
  ----- ------------  ---------------      ----- ------------  ---------------
    60     -0.310718  8 O  px                36      0.294081  5 C  pz         
    86      0.284102  9 H  s                 63     -0.226877  8 O  px         

 Vector    8  Occ=2.000000D+00  E=-4.169074D-01
              MO Center=  7.9D-02,  9.3D-03,  3.2D-01, r^2= 2.0D+00
   Bfn.  Coefficient  Atom+Function         Bfn.  Coefficient  Atom+Function  
  ----- ------------  ---------------      ----- ------------  ---------------
    35      0.362738  5 C  py                10      0.247296  2 C  py         
    50      0.218688  7 H  s                 45     -0.214774  6 H  s          

 Vector    9  Occ=2.000000D+00  E=-3.610369D-01
              MO Center=  1.0D-01, -6.8D-03, -2.0D-01, r^2= 2.2D+00
   Bfn.  Coefficient  Atom+Function         Bfn.  Coefficient  Atom+Function  
  ----- ------------  ---------------      ----- ------------  ---------------
    34      0.331082  5 C  px                62     -0.264893  8 O  pz         
    11      0.234256  2 C  pz                 9     -0.228357  2 C  px         
    65     -0.213169  8 O  pz                37      0.163185  5 C  px         
    26     -0.152986  4 H  s          

 Vector   10  Occ=2.000000D+00  E=-3.380514D-01
              MO Center=  1.1D+00, -2.7D-02,  3.1D-01, r^2= 2.1D+00
   Bfn.  Coefficient  Atom+Function         Bfn.  Coefficient  Atom+Function  
  ----- ------------  ---------------      ----- ------------  ---------------
     1      0.375851  1 H  s                 11      0.340477  2 C  pz         
     9      0.233232  2 C  px                 2      0.169688  1 H  s          
    34     -0.153341  5 C  px         

 Vector   11  Occ=2.000000D+00  E=-3.243452D-01
              MO Center=  7.5D-01, -5.9D-02, -3.7D-02, r^2= 2.3D+00
   Bfn.  Coefficient  Atom+Function         Bfn.  Coefficient  Atom+Function  
  ----- ------------  ---------------      ----- ------------  ---------------
    10      0.372949  2 C  py                26     -0.293250  4 H  s          
    35     -0.204754  5 C  py                21      0.174833  3 H  s          
    13      0.168722  2 C  py                45      0.156430  6 H  s          
    50     -0.155644  7 H  s                 61     -0.156397  8 O  py         

 Vector   12  Occ=2.000000D+00  E=-2.960083D-01
              MO Center= -3.4D-01,  7.8D-03, -1.7D-01, r^2= 2.1D+00
   Bfn.  Coefficient  Atom+Function         Bfn.  Coefficient  Atom+Function  
  ----- ------------  ---------------      ----- ------------  ---------------
    62     -0.270832  8 O  pz                 9      0.253444  2 C  px         
    36      0.249486  5 C  pz                65     -0.212187  8 O  pz         
    59      0.203173  8 O  s                 34     -0.196613  5 C  px         
    86     -0.197525  9 H  s                 50      0.163098  7 H  s          
    45      0.160757  6 H  s                 68     -0.157376  8 O  pz         

 Vector   13  Occ=2.000000D+00  E=-2.301664D-01
              MO Center= -8.2D-01,  2.4D-02, -3.2D-01, r^2= 1.5D+00
   Bfn.  Coefficient  Atom+Function         Bfn.  Coefficient  Atom+Function  
  ----- ------------  ---------------      ----- ------------  ---------------
    61      0.425514  8 O  py                64      0.351267  8 O  py         
    67      0.320158  8 O  py                45      0.209109  6 H  s          
    50     -0.209919  7 H  s                 35     -0.189856  5 C  py         

 Vector   14  Occ=0.000000D+00  E= 3.827182D-02
              MO Center= -1.4D+00,  7.5D-02,  7.6D-02, r^2= 4.5D+00
   Bfn.  Coefficient  Atom+Function         Bfn.  Coefficient  Atom+Function  
  ----- ------------  ---------------      ----- ------------  ---------------
    87      1.260844  9 H  s                 59     -0.913968  8 O  s          
    33     -0.790325  5 C  s                 46      0.574068  6 H  s          
    51      0.575167  7 H  s                  8     -0.482611  2 C  s          
    39     -0.461908  5 C  pz                 2      0.425151  1 H  s          
    66      0.354046  8 O  px                22      0.225221  3 H  s          

 Vector   15  Occ=0.000000D+00  E= 6.912591D-02
              MO Center=  8.4D-01,  2.3D-01,  2.8D-02, r^2= 6.2D+00
   Bfn.  Coefficient  Atom+Function         Bfn.  Coefficient  Atom+Function  
  ----- ------------  ---------------      ----- ------------  ---------------
     8      2.106270  2 C  s                 22     -1.148420  3 H  s          
    27     -0.858260  4 H  s                  2     -0.761582  1 H  s          
    33      0.712985  5 C  s                 59     -0.691436  8 O  s          
    87      0.643032  9 H  s                 51     -0.518983  7 H  s          
    37     -0.470979  5 C  px                46     -0.415443  6 H  s          

 Vector   16  Occ=0.000000D+00  E= 1.000928D-01
              MO Center=  2.8D-01, -2.5D-01,  4.3D-01, r^2= 5.8D+00
   Bfn.  Coefficient  Atom+Function         Bfn.  Coefficient  Atom+Function  
  ----- ------------  ---------------      ----- ------------  ---------------
    46      1.603176  6 H  s                 33     -1.355010  5 C  s          
    22     -1.175189  3 H  s                 38      0.700769  5 C  py         
    27      0.613059  4 H  s                 13      0.509101  2 C  py         
    59      0.476497  8 O  s                  8      0.467232  2 C  s          
    51     -0.299297  7 H  s                 87     -0.273525  9 H  s          

 Vector   17  Occ=0.000000D+00  E= 1.078784D-01
              MO Center=  9.4D-02,  3.1D-01,  5.1D-01, r^2= 6.0D+00
[...]
   Bfn.  Coefficient  Atom+Function         Bfn.  Coefficient  Atom+Function  
  ----- ------------  ---------------      ----- ------------  ---------------
    46     -1.621305  6 H  s                 33      1.489951  5 C  s          
    22      1.216583  3 H  s                 38     -0.678788  5 C  py         
     8     -0.611170  2 C  s                 27     -0.538460  4 H  s          
    13     -0.496976  2 C  py                59     -0.494294  8 O  s          
    87      0.258356  9 H  s                 35     -0.240948  5 C  py         

 Vector   17  Occ=0.000000D+00  E= 1.076944D-01
              MO Center=  1.3D-01,  3.1D-01,  5.2D-01, r^2= 5.9D+00
   Bfn.  Coefficient  Atom+Function         Bfn.  Coefficient  Atom+Function  
  ----- ------------  ---------------      ----- ------------  ---------------
    33      2.417798  5 C  s                 51     -1.748391  7 H  s          
     8     -1.739469  2 C  s                 27      1.206000  4 H  s          
    59     -0.688089  8 O  s                 38      0.504503  5 C  py         
    46     -0.376066  6 H  s                 22      0.358090  3 H  s          
    87      0.356972  9 H  s                 68     -0.309481  8 O  pz         

 Vector   18  Occ=0.000000D+00  E= 1.267105D-01
              MO Center=  1.6D+00, -6.1D-02,  9.2D-01, r^2= 4.0D+00
   Bfn.  Coefficient  Atom+Function         Bfn.  Coefficient  Atom+Function  
  ----- ------------  ---------------      ----- ------------  ---------------
     2      2.018815  1 H  s                 14     -1.111445  2 C  pz         
    33      0.920099  5 C  s                  8     -0.748519  2 C  s          
    22     -0.544042  3 H  s                 27     -0.538639  4 H  s          
    46     -0.492009  6 H  s                 11     -0.338623  2 C  pz         
    87     -0.336948  9 H  s                 51     -0.287698  7 H  s          

 Vector   19  Occ=0.000000D+00  E= 1.497366D-01
              MO Center=  6.1D-01, -2.0D-01,  2.1D-01, r^2= 5.6D+00
   Bfn.  Coefficient  Atom+Function         Bfn.  Coefficient  Atom+Function  
  ----- ------------  ---------------      ----- ------------  ---------------
    27      1.464119  4 H  s                 46     -1.236909  6 H  s          
    13      1.113991  2 C  py                22     -1.084254  3 H  s          
    51      1.080070  7 H  s                 38     -1.034891  5 C  py         
     8     -0.307782  2 C  s                 10      0.289350  2 C  py         
    35     -0.288073  5 C  py                39      0.166767  5 C  pz         

 Vector   20  Occ=0.000000D+00  E= 1.599186D-01
              MO Center= -6.5D-01,  2.2D-02,  1.9D-01, r^2= 3.1D+00
   Bfn.  Coefficient  Atom+Function         Bfn.  Coefficient  Atom+Function  
  ----- ------------  ---------------      ----- ------------  ---------------
    39      1.538372  5 C  pz                33     -1.134682  5 C  s          
    87      1.050180  9 H  s                 59      0.863301  8 O  s          
    66      0.819074  8 O  px                68      0.707586  8 O  pz         
    37      0.672546  5 C  px                14     -0.557535  2 C  pz         
     2      0.432957  1 H  s                 51     -0.413771  7 H  s          

 Vector   21  Occ=0.000000D+00  E= 2.046595D-01
              MO Center=  6.4D-01, -1.9D-02,  1.9D-01, r^2= 3.0D+00
   Bfn.  Coefficient  Atom+Function         Bfn.  Coefficient  Atom+Function  
  ----- ------------  ---------------      ----- ------------  ---------------
    33      2.490899  5 C  s                  8     -2.227472  2 C  s          
    12      1.946084  2 C  px                37      1.741771  5 C  px         
    39     -0.889913  5 C  pz                59     -0.498250  8 O  s          
    14     -0.437263  2 C  pz                66     -0.378293  8 O  px         
    34      0.361013  5 C  px                 9      0.318688  2 C  px         

 Vector   22  Occ=0.000000D+00  E= 3.189823D-01
              MO Center=  1.1D+00, -1.6D-03,  7.8D-02, r^2= 3.5D+00
   Bfn.  Coefficient  Atom+Function         Bfn.  Coefficient  Atom+Function  
  ----- ------------  ---------------      ----- ------------  ---------------
    21     -1.556865  3 H  s                  8      1.532760  2 C  s          
    33     -1.286654  5 C  s                 13      0.972953  2 C  py         
    39      0.703838  5 C  pz                59      0.631432  8 O  s          
    14     -0.620855  2 C  pz                22      0.519422  3 H  s          
    37     -0.415909  5 C  px                 2     -0.347401  1 H  s          

 Vector   23  Occ=0.000000D+00  E= 4.010385D-01
              MO Center= -3.1D-01, -6.9D-02, -8.5D-01, r^2= 3.3D+00
   Bfn.  Coefficient  Atom+Function         Bfn.  Coefficient  Atom+Function  
  ----- ------------  ---------------      ----- ------------  ---------------
    68      0.972077  8 O  pz                33     -0.616108  5 C  s          
    65     -0.526246  8 O  pz                58      0.498167  8 O  s          
    59     -0.485818  8 O  s                 14      0.369745  2 C  pz         
     1     -0.337357  1 H  s                 26      0.286627  4 H  s          
    62     -0.241842  8 O  pz                 9     -0.232485  2 C  px         

 Vector   24  Occ=0.000000D+00  E= 4.064418D-01
              MO Center= -2.3D-02,  1.4D-01, -2.6D-01, r^2= 4.2D+00
   Bfn.  Coefficient  Atom+Function         Bfn.  Coefficient  Atom+Function  
  ----- ------------  ---------------      ----- ------------  ---------------
    33      1.409140  5 C  s                 39     -0.902955  5 C  pz         
    66     -0.812553  8 O  px                68     -0.812266  8 O  pz         
    59     -0.772398  8 O  s                  8     -0.610298  2 C  s          
    26      0.554548  4 H  s                 14      0.462355  2 C  pz         
    67      0.405878  8 O  py                37      0.388386  5 C  px         

 Vector   25  Occ=0.000000D+00  E= 4.300994D-01
              MO Center= -6.2D-01, -4.9D-03, -5.3D-01, r^2= 3.5D+00
   Bfn.  Coefficient  Atom+Function         Bfn.  Coefficient  Atom+Function  
  ----- ------------  ---------------      ----- ------------  ---------------
    67      1.086332  8 O  py                64     -0.598506  8 O  py         
    66      0.532774  8 O  px                59      0.511360  8 O  s          
    33     -0.493656  5 C  s                 13     -0.422121  2 C  py         
    39      0.364014  5 C  pz                68      0.305621  8 O  pz         
    61     -0.276819  8 O  py                26     -0.268294  4 H  s          

 Vector   26  Occ=0.000000D+00  E= 4.407041D-01
              MO Center= -2.8D-01,  3.3D-02, -5.4D-02, r^2= 4.2D+00
   Bfn.  Coefficient  Atom+Function         Bfn.  Coefficient  Atom+Function  
  ----- ------------  ---------------      ----- ------------  ---------------
    68      0.781989  8 O  pz                12     -0.518339  2 C  px         
    32     -0.511382  5 C  s                  7     -0.488617  2 C  s          
    59      0.456670  8 O  s                 37      0.419293  5 C  px         
    86      0.414649  9 H  s                 39     -0.406440  5 C  pz         
     8      0.374254  2 C  s                 87     -0.361855  9 H  s          

 Vector   27  Occ=0.000000D+00  E= 4.655152D-01
              MO Center= -1.5D-01,  3.0D-02,  3.7D-01, r^2= 2.9D+00
   Bfn.  Coefficient  Atom+Function         Bfn.  Coefficient  Atom+Function  
  ----- ------------  ---------------      ----- ------------  ---------------
    33      3.397365  5 C  s                 59     -2.266085  8 O  s          
    39     -1.822673  5 C  pz                 8     -1.338974  2 C  s          
    12      0.897078  2 C  px                32     -0.820512  5 C  s          
    68     -0.786648  8 O  pz                36      0.629892  5 C  pz         
    37     -0.598042  5 C  px                14      0.417172  2 C  pz         

 Vector   28  Occ=0.000000D+00  E= 5.611240D-01
              MO Center= -1.2D+00,  9.7D-02, -2.3D-01, r^2= 4.2D+00
   Bfn.  Coefficient  Atom+Function         Bfn.  Coefficient  Atom+Function  
  ----- ------------  ---------------      ----- ------------  ---------------
    33      1.981597  5 C  s                 87     -1.903269  9 H  s          
    59      1.520666  8 O  s                 66     -1.325291  8 O  px         
     8     -1.002297  2 C  s                 58     -0.879996  8 O  s          
    32     -0.552453  5 C  s                 12      0.540975  2 C  px         
    86      0.505696  9 H  s                  2      0.454113  1 H  s          


 center of mass
 --------------
 x =  -0.10717917 y =  -0.00125153 z =  -0.08555953

 moments of inertia (a.u.)
 ------------------
          68.049285521765           4.974974847011         -45.189124316656
           4.974974847011         225.694229672838           0.234498805938
         -45.189124316656           0.234498805938         181.079436245883

     Multipole analysis of the density
     ---------------------------------

     L   x y z        total         alpha         beta         nuclear
     -   - - -        -----         -----         ----         -------
     0   0 0 0     -0.000000    -13.000000    -13.000000     26.000000

     1   1 0 0     -0.240974      0.241400      0.241400     -0.723775
     1   0 1 0      0.052401      0.053001      0.053001     -0.053601
     1   0 0 1      0.732116      0.473653      0.473653     -0.215189

     2   2 0 0    -11.818171    -59.134051    -59.134051    106.449931
     2   1 1 0     -0.121300      1.512691      1.512691     -3.146683
     2   1 0 1     -0.659721    -12.132002    -12.132002     23.604282
     2   0 2 0    -14.998384    -13.277964    -13.277964     11.557544
     2   0 1 1     -0.023883      0.028890      0.028890     -0.081663
     2   0 0 2    -16.084528    -25.923732    -25.923732     35.762936

  int_init: cando_txs set to always be  F
  intd_init: cando_txs set to always be  F


                            NWChem DFT Gradient Module
                            --------------------------



  charge          =   0.00
  wavefunction    = closed shell

  int_init: cando_txs set to always be  F
  intd_init: cando_txs set to always be  F


                         DFT ENERGY GRADIENTS

    atom               coordinates                        gradient
                 x          y          z           x          y          z
   1 H       3.480769  -0.076357   1.992432   -0.000194   0.000008  -0.000060
   2 C       2.320511  -0.089181   0.258020    0.000000   0.000000   0.000000
   3 H1      2.875192   1.527231  -0.913464    0.000155   0.000007  -0.000031
   4 H       2.738416  -1.842201  -0.794311    0.000169   0.000141   0.000065
   5 C      -0.468347   0.051714   0.944256   -0.000235   0.000407   0.000614
   6 H      -1.003898  -1.579669   2.144972    0.000096  -0.000062  -0.000256
   7 H      -0.865949   1.801701   2.024620    0.000173  -0.000151  -0.000322
   8 O      -1.920162   0.027664  -1.371562   -0.000372   0.000019  -0.000372
   9 H      -3.699997   0.119183  -0.910597    0.000139  -0.000046   0.000199

                 ----------------------------------------
                 |  Time  |  1-e(secs)   |  2-e(secs)   |
                 ----------------------------------------
                 |  CPU   |       0.35   |       0.00   |
                 ----------------------------------------
                 |  WALL  |       0.35   |       0.00   |
                 ----------------------------------------

  Step       Energy      Delta E   Gmax     Grms     Xrms     Xmax   Walltime
  ---- ---------------- -------- -------- -------- -------- -------- --------
@    1    -155.04759522 -5.8D-06  0.00061  0.00022  0.00212  0.00508    810.1
                                     ok       ok       ok       ok  


      ----------------------
      Optimization converged
      ----------------------


  Step       Energy      Delta E   Gmax     Grms     Xrms     Xmax   Walltime
  ---- ---------------- -------- -------- -------- -------- -------- --------
@    1    -155.04759522 -5.8D-06  0.00061  0.00022  0.00212  0.00508    810.1
                                     ok       ok       ok       ok  



                         Geometry "geometry" -> "geometry"
                         ---------------------------------

 Output coordinates in angstroms (scale by  1.889725989 to convert to a.u.)

  No.       Tag          Charge          X              Y              Z
 ---- ---------------- ---------- -------------- -------------- --------------
    1 H                    1.0000     1.84194351    -0.04040644     1.05434977
    2 C                    6.0000     1.22796154    -0.04719231     0.13653846
    3 H1                   1.0000     1.52148623     0.80817603    -0.48338412
    4 H                    1.0000     1.44910722    -0.97485087    -0.42033109
    5 C                    6.0000    -0.24783837     0.02736561     0.49967875
    6 H                    1.0000    -0.53124021    -0.83592495     1.13507056
    7 H                    1.0000    -0.45824034     0.95341933     1.07138259
    8 O                    8.0000    -1.01610579     0.01463923    -0.72579960
    9 H                    1.0000    -1.95795409     0.06306892    -0.48186702

      Atomic Mass 
      ----------- 

      H                  1.007825
      C                 12.000000
      H1                 1.007825
      O                 15.994910


 Effective nuclear repulsion energy (a.u.)      80.9656709122

            Nuclear Dipole moment (a.u.) 
            ----------------------------
        X                 Y               Z
 ---------------- ---------------- ----------------
    -0.7237745832    -0.0536007588    -0.2151885543

 ==============================================================================
                                internuclear distances
 ------------------------------------------------------------------------------
       center one      |      center two      | atomic units |  angstroms
 ------------------------------------------------------------------------------
    2 C                |   1 H                |     2.08676  |     1.10426
    3 H1               |   2 C                |     2.07192  |     1.09641
    4 H                |   2 C                |     2.08689  |     1.10434
    5 C                |   2 C                |     2.87550  |     1.52165
    6 H                |   5 C                |     2.09522  |     1.10874
    7 H                |   5 C                |     2.09469  |     1.10846
    8 O                |   5 C                |     2.73338  |     1.44644
    9 H                |   8 O                |     1.84084  |     0.97413
 ------------------------------------------------------------------------------
                         number of included internuclear distances:          8
 ==============================================================================



 ==============================================================================
                                 internuclear angles
 ------------------------------------------------------------------------------
        center 1       |       center 2       |       center 3       |  degrees
 ------------------------------------------------------------------------------
    1 H                |   2 C                |   3 H1               |   108.44
    1 H                |   2 C                |   4 H                |   108.24
    1 H                |   2 C                |   5 C                |   109.91
    3 H1               |   2 C                |   4 H                |   108.46
    3 H1               |   2 C                |   5 C                |   110.88
    4 H                |   2 C                |   5 C                |   110.84
    2 C                |   5 C                |   6 H                |   110.27
    2 C                |   5 C                |   7 H                |   110.37
    2 C                |   5 C                |   8 O                |   108.21
    6 H                |   5 C                |   7 H                |   107.84
    6 H                |   5 C                |   8 O                |   110.05
    7 H                |   5 C                |   8 O                |   110.09
    5 C                |   8 O                |   9 H                |   107.51
 ------------------------------------------------------------------------------
                            number of included internuclear angles:         13
 ==============================================================================




 Task  times  cpu:      208.0s     wall:      208.7s
 Summary of allocated global arrays
-----------------------------------
  No active global arrays



                         GA Statistics for process    0
                         ------------------------------

       create   destroy   get      put      acc     scatter   gather  read&inc
calls: 1844     1844     1.17e+06 1.93e+05 7.06e+05    0        0     2.62e+04 
number of processes/call 1.00e+00 1.00e+00 1.00e+00 0.00e+00 0.00e+00
bytes total:             1.08e+09 1.46e+08 6.55e+08 0.00e+00 0.00e+00 2.10e+05
bytes remote:            0.00e+00 0.00e+00 0.00e+00 0.00e+00 0.00e+00 0.00e+00
Max memory consumed for GA by this process: 2527200 bytes
MA_summarize_allocated_blocks: starting scan ...
MA_summarize_allocated_blocks: scan completed: 0 heap blocks, 0 stack blocks
MA usage statistics:

	allocation statistics:
					      heap	     stack
					      ----	     -----
	current number of blocks	         0	         0
	maximum number of blocks	        31	        50
	current total bytes		         0	         0
	maximum total bytes		  46226384	  32598976
	maximum total K-bytes		     46227	     32599
	maximum total M-bytes		        47	        33


                                NWChem Input Module
                                -------------------





                                     CITATION
                                     --------
                Please cite the following reference when publishing
                           results obtained with NWChem:

                 M. Valiev, E.J. Bylaska, N. Govind, K. Kowalski,
              T.P. Straatsma, H.J.J. van Dam, D. Wang, J. Nieplocha,
                        E. Apra, T.L. Windus, W.A. de Jong
                 "NWChem: a comprehensive and scalable open-source
                  solution for large scale molecular simulations"
                      Comput. Phys. Commun. 181, 1477 (2010)
                           doi:10.1016/j.cpc.2010.04.018

                              AUTHORS & CONTRIBUTORS
                              ----------------------
          E. Apra, E. J. Bylaska, W. A. de Jong, N. Govind, K. Kowalski,
       T. P. Straatsma, M. Valiev, H. J. J. van Dam, D. Wang, T. L. Windus,
        J. Hammond, J. Autschbach, K. Bhaskaran-Nair, J. Brabec, K. Lopata,
     F. Aquino, S. Hirata, M. T. Hackler, J. Mullin, P. Nichols, R. Peverati,
    J. Pittner, Y. Zhao, P.-D. Fan, R. J. Harrison, M. Dupuis, D. Silverstein,
    D. M. A. Smith, J. Nieplocha, V. Tipparaju, M. Krishnan, B. E. Van Kuiken,
        A. Vazquez-Mayagoitia, L. Jensen, M. Swart, Q. Wu, T. Van Voorhis,
     A. A. Auer, M. Nooijen, L. D. Crosby, E. Brown, G. Cisneros, G. I. Fann,
     H. Fruchtl, J. Garza, K. Hirao, R. Kendall, J. A. Nichols, K. Tsemekhman,
      K. Wolinski, J. Anchell, D. Bernholdt, P. Borowski, T. Clark, D. Clerc,
      H. Dachsel, M. Deegan, K. Dyall, D. Elwood, E. Glendening, M. Gutowski,
      A. Hess, J. Jaffe, B. Johnson, J. Ju, R. Kobayashi, R. Kutteh, Z. Lin,
   R. Littlefield, X. Long, B. Meng, T. Nakajima, S. Niu, L. Pollack, M. Rosing,
   K. Glaesemann, G. Sandrone, M. Stave, H. Taylor, G. Thomas, J. H. van Lenthe,
                                A. Wong, Z. Zhang.

 Total times  cpu:      807.4s     wall:      810.1s
