 *******************************************************************************
 ** Site#: 6104            For non-commercial use only        Version 12.290L **
 *******************************************************************************
 ** Cite this work as: MOPAC2012, James J. P. Stewart, Stewart Computational  **
 ** Chemistry, Version 12.290L web: HTTP://OpenMOPAC.net  Days remaining: 157 **
 *******************************************************************************
 **                                                                           **
 **                                MOPAC2012                                  **
 **                                                                           **
 *******************************************************************************

                        PM6-DH2X CALCULATION RESULTS


 *******************************************************************************
 *  CALCULATION DONE:                                Mon May 13 17:29:57 2013  *
 *  PM6-DH2X - CORRECT DISPERSION, HALOGEN AND HYDROGEN BOND TERMS USING PM6-DH2X
 *  SINGLET  - SPIN STATE DEFINED AS A SINGLET
 *  RHF      - RESTRICTED HARTREE-FOCK CALCULATION
 *
 *
 *
 *                 CHARGE ON SYSTEM =     1
 *
 *
 *
 *  EPS=  4.000
 *  RSOLV=  1.300
 *  T=       - A TIME OF 172800.0 SECONDS REQUESTED
 *  DUMP=N   - RESTART FILE WRITTEN EVERY  7200.000 SECONDS
 *  AUX      - OUTPUT AUXILIARY INFORMATION
 *  BONDS    - FINAL BOND-ORDER MATRIX TO BE PRINTED
 *******************************************************************************
RHF PM6-DH2X  EPS=4.0 RSOLV=1.3 CHARGE=1 Singlet  BONDS AUX

 Mopac file generated by gochem :-)
   ATOM   CHEMICAL          X               Y               Z
  NUMBER   SYMBOL      (ANGSTROMS)     (ANGSTROMS)     (ANGSTROMS)
 
     1       C         18.66399000    -14.62600000     19.40799000   
     2       C         17.82756000  * -15.83851000  *  19.61708000  *
     3       N         16.81531000  * -16.18660000  *  18.73213000  *
     4       C         17.87995000  * -16.79946000  *  20.61440000  *
     5       C         16.27380000  * -17.33030000  *  19.20246000  *
     6       N         16.89270000  * -17.72101000  *  20.33578000  *
     7       C         19.90299000  * -12.06600000  *  14.11600000  *
     8       C         18.77779000  * -12.93913000  *  14.55115000  *
     9       N         17.67926000  * -13.23247000  *  13.75531000  *
    10       C         18.54443000  * -13.61164000  *  15.73886000  *
    11       C         16.83564000    -14.04321000     14.44739000   
    12       N         17.33772000  * -14.29445000  *  15.66181000  *
    13       C         22.31499000  * -16.81800000  *  16.60300000  *
    14       C         20.95210000  * -17.36239000  *  16.89276000  *
    15       N         20.71749000  * -18.39196000  *  17.80307000  *
    16       C         19.73471000  * -16.97676000  *  16.35182000  *
    17       C         19.39880000  * -18.61474000  *  17.81248000  *
    18       N         18.78099000  * -17.78782000  *  16.93753000  *
    19       C         22.36499000  * -22.75599000  *  19.42699000  *
    20       C         21.14752000  * -22.14292000  *  20.03610000  *
    21       N         20.86801000    -20.78304000     19.95438000   
    22       C         20.13394000  * -22.74074000  *  20.77306000  *
    23       C         19.72478000  * -20.58326000  *  20.64076000  *
    24       N         19.25496000  * -21.74360000  *  21.13994000  *
    25       C         25.17499000  * -17.74300000  *  19.69299000  *
    26       C         24.94123000  * -18.68488000  *  18.55202000  *
    27       N         23.73557000  * -19.35313000  *  18.32758000  *
    28       C         25.82348000  * -19.06291000  *  17.55114000  *
    29       C         23.89004000  * -20.10286000  *  17.23046000  *
    30       N         25.14197000  * -19.95176000  *  16.73901000  *
    31       C         22.27199000  * -17.60200000  *  22.98299000  *
    32       C         22.38738000  * -18.28879000  *  21.64055000  *
    33       O         21.69611000  * -17.77664000  *  20.66581000  *
    34       O         23.09186000  * -19.31690000  *  21.48894000  *
    35       C         11.31100000  * -16.99500000  *  17.93999000  *
    36       C         12.58061000  * -16.76390000  *  17.20264000  *
    37       N         12.89603000  * -17.34968000  *  15.98537000  *
    38       C         13.68566000  * -15.99567000  *  17.52248000  *
    39       C         14.14299000  * -16.93883000  *  15.61322000  *
    40       N         14.64879000  * -16.11556000  *  16.53323000  *
    41       C         14.92800000  * -20.55299000  *  22.57099000  *
    42       C         16.39765000  * -20.78715000  *  22.21814000  *
    43       O         16.89410000  * -21.94258000  *  22.36173000  *
    44       O         17.06679000  * -19.78889000  *  21.78403000  *
    45      Cu         16.49900000  * -15.39942000  *  16.98528000  *
    46      Zn         21.95657000  * -19.20669000  *  19.29164000  *
    47       H         23.27567000  * -22.19922000  *  19.73176000  *
    48       H         22.32380000  * -22.73394000  *  18.31664000  *
    49       H         22.47644000  * -23.81079000  *  19.74055000  *
    50       H         20.40364000  * -12.46409000  *  13.20873000  *
    51       H         20.65787000  * -11.99370000  *  14.92081000  *
    52       H         19.55511000  * -11.03829000  *  13.88112000  *
    53       H         11.17302000  * -18.06739000  *  18.19337000  *
    54       H         10.42537000  * -16.67788000  *  17.34997000  *
    55       H         11.31539000  * -16.41940000  *  18.88384000  *
    56       H         19.39861000  * -14.79753000  *  18.59114000  *
    57       H         19.23441000  * -14.36803000  *  20.32010000  *
    58       H         18.03729000  * -13.75782000  *  19.11841000  *
    59       H         22.25131000  * -15.93213000  *  15.94425000  *
    60       H         22.95801000  * -17.57586000  *  16.10895000  *
    61       H         22.82733000  * -16.52404000  *  17.54195000  *
    62       H         24.37255000  * -16.97791000  *  19.73577000  *
    63       H         26.15256000  * -17.23807000  *  19.58788000  *
    64       H         25.13482000  * -18.28755000  *  20.65680000  *
    65       H         22.35277000  * -16.50370000  *  22.86581000  *
    66       H         23.03826000  * -17.97141000  *  23.68824000  *
    67       H         21.26671000  * -17.81153000  *  23.40409000  *
    68       H         18.54573000  * -16.90422000  *  21.47662000  *
    69       H         15.43874000  * -17.86385000  *  18.73524000  *
    70       H         19.16284000  * -13.64312000  *  16.63997000  *
    71       H         15.88424000  * -14.42186000  *  14.05961000  *
    72       H         19.46946000  * -16.20383000  *  15.62473000  *
    73       H         18.87393000  * -19.34222000  *  18.43994000  *
    74       H         19.98514000  * -23.78618000  *  21.06168000  *
    75       H         19.23357000  * -19.62115000  *  20.81364000  *
    76       H         26.86196000  * -18.77621000  *  17.36115000  *
    77       H         23.12385000  * -20.74199000  *  16.77957000  *
    78       H         13.85428000  * -15.38399000  *  18.41551000  *
    79       H         14.63850000  * -17.26147000  *  14.69080000  *
    80       H         18.31725000  * -21.84845000  *  21.69426000  *
    81       H         25.51835000  * -20.42438000  *  15.91418000  *
    82       H         17.76711000  * -17.69575000  *  16.82010000  *
    83       H         16.75277000  * -18.61907000  *  20.94986000  *
    84       H         17.52279000  * -12.88875000  *  12.80475000  *
    85       H         12.29545000  * -17.98602000  *  15.45552000  *
    86       H         14.84399000  * -19.69624000  *  23.26922000  *
    87       H         14.46796000  * -21.45298000  *  23.01907000  *
    88       H         14.37137000  * -20.27874000  *  21.65054000  *
 


          CARTESIAN COORDINATES 

    NO.       ATOM         X         Y         Z

     1         C       18.6640  -14.6260   19.4080
     2         C       17.8276  -15.8385   19.6171
     3         N       16.8153  -16.1866   18.7321
     4         C       17.8800  -16.7995   20.6144
     5         C       16.2738  -17.3303   19.2025
     6         N       16.8927  -17.7210   20.3358
     7         C       19.9030  -12.0660   14.1160
     8         C       18.7778  -12.9391   14.5511
     9         N       17.6793  -13.2325   13.7553
    10         C       18.5444  -13.6116   15.7389
    11         C       16.8356  -14.0432   14.4474
    12         N       17.3377  -14.2944   15.6618
    13         C       22.3150  -16.8180   16.6030
    14         C       20.9521  -17.3624   16.8928
    15         N       20.7175  -18.3920   17.8031
    16         C       19.7347  -16.9768   16.3518
    17         C       19.3988  -18.6147   17.8125
    18         N       18.7810  -17.7878   16.9375
    19         C       22.3650  -22.7560   19.4270
    20         C       21.1475  -22.1429   20.0361
    21         N       20.8680  -20.7830   19.9544
    22         C       20.1339  -22.7407   20.7731
    23         C       19.7248  -20.5833   20.6408
    24         N       19.2550  -21.7436   21.1399
    25         C       25.1750  -17.7430   19.6930
    26         C       24.9412  -18.6849   18.5520
    27         N       23.7356  -19.3531   18.3276
    28         C       25.8235  -19.0629   17.5511
    29         C       23.8900  -20.1029   17.2305
    30         N       25.1420  -19.9518   16.7390
    31         C       22.2720  -17.6020   22.9830
    32         C       22.3874  -18.2888   21.6406
    33         O       21.6961  -17.7766   20.6658
    34         O       23.0919  -19.3169   21.4889
    35         C       11.3110  -16.9950   17.9400
    36         C       12.5806  -16.7639   17.2026
    37         N       12.8960  -17.3497   15.9854
    38         C       13.6857  -15.9957   17.5225
    39         C       14.1430  -16.9388   15.6132
    40         N       14.6488  -16.1156   16.5332
    41         C       14.9280  -20.5530   22.5710
    42         C       16.3976  -20.7872   22.2181
    43         O       16.8941  -21.9426   22.3617
    44         O       17.0668  -19.7889   21.7840
    45        Cu       16.4990  -15.3994   16.9853
    46        Zn       21.9566  -19.2067   19.2916
    47         H       23.2757  -22.1992   19.7318
    48         H       22.3238  -22.7339   18.3166
    49         H       22.4764  -23.8108   19.7405
    50         H       20.4036  -12.4641   13.2087
    51         H       20.6579  -11.9937   14.9208
    52         H       19.5551  -11.0383   13.8811
    53         H       11.1730  -18.0674   18.1934
    54         H       10.4254  -16.6779   17.3500
    55         H       11.3154  -16.4194   18.8838
    56         H       19.3986  -14.7975   18.5911
    57         H       19.2344  -14.3680   20.3201
    58         H       18.0373  -13.7578   19.1184
    59         H       22.2513  -15.9321   15.9443
    60         H       22.9580  -17.5759   16.1090
    61         H       22.8273  -16.5240   17.5419
    62         H       24.3726  -16.9779   19.7358
    63         H       26.1526  -17.2381   19.5879
    64         H       25.1348  -18.2875   20.6568
    65         H       22.3528  -16.5037   22.8658
    66         H       23.0383  -17.9714   23.6882
    67         H       21.2667  -17.8115   23.4041
    68         H       18.5457  -16.9042   21.4766
    69         H       15.4387  -17.8638   18.7352
    70         H       19.1628  -13.6431   16.6400
    71         H       15.8842  -14.4219   14.0596
    72         H       19.4695  -16.2038   15.6247
    73         H       18.8739  -19.3422   18.4399
    74         H       19.9851  -23.7862   21.0617
    75         H       19.2336  -19.6212   20.8136
    76         H       26.8620  -18.7762   17.3611
    77         H       23.1239  -20.7420   16.7796
    78         H       13.8543  -15.3840   18.4155
    79         H       14.6385  -17.2615   14.6908
    80         H       18.3173  -21.8484   21.6943
    81         H       25.5184  -20.4244   15.9142
    82         H       17.7671  -17.6958   16.8201
    83         H       16.7528  -18.6191   20.9499
    84         H       17.5228  -12.8887   12.8048
    85         H       12.2955  -17.9860   15.4555
    86         H       14.8440  -19.6962   23.2692
    87         H       14.4680  -21.4530   23.0191
    88         H       14.3714  -20.2787   21.6505

 General Reference for PM6:
 "Optimization of Parameters for Semiempirical Methods V: Modification of NDDO Approximations
 and Application to 70 Elements", J. J. P. Stewart, J. Mol. Mod., 13, 1173-1213 (2007)
 URL: http://www.springerlink.com/content/ar33482301010477/fulltext.pdf

           Empirical Formula: C28 H42 N12 O4 Cu Zn  =    88 atoms



      MOLECULAR POINT GROUP   :   C1  


 SINGLET STATE CALCULATION


      RHF CALCULATION, NO. OF DOUBLY OCCUPIED LEVELS =  125

      Geometry optimization using EF



          *********************************************
          *                                           *
          *                 WARNING                   *
          *                                           *
          *********************************************

          Dispersion parameters missing for Copper
          Dispersion parameters missing for Zinc

          *********************************************
          *                                           *
          *              END OF WARNING               *
          *                                           *
          *********************************************


          DIAGONAL MATRIX USED AS START HESSIAN

 CYCLE:     1 TIME:   0.840 TIME LEFT:  2.00D  GRAD.:   274.752 HEAT:-58.38415
 CYCLE:     2 TIME:   0.364 TIME LEFT:  2.00D  GRAD.:   223.432 HEAT:-65.03959
 CYCLE:     3 TIME:   0.404 TIME LEFT:  2.00D  GRAD.:   163.080 HEAT:-69.75999
 CYCLE:     4 TIME:   0.808 TIME LEFT:  2.00D  GRAD.:    94.315 HEAT:-75.75672
 CYCLE:     5 TIME:   0.744 TIME LEFT:  2.00D  GRAD.:    51.193 HEAT:-77.84977
 CYCLE:     6 TIME:   0.744 TIME LEFT:  2.00D  GRAD.:    34.242 HEAT:-78.52771
 CYCLE:     7 TIME:   0.380 TIME LEFT:  2.00D  GRAD.:    47.339 HEAT:-78.72410
 CYCLE:     8 TIME:   0.384 TIME LEFT:  2.00D  GRAD.:    43.659 HEAT:-79.38602
 CYCLE:     9 TIME:   0.744 TIME LEFT:  2.00D  GRAD.:    33.773 HEAT:-79.85344
 CYCLE:    10 TIME:   0.380 TIME LEFT:  2.00D  GRAD.:    45.755 HEAT:-80.04948
 CYCLE:    11 TIME:   0.380 TIME LEFT:  2.00D  GRAD.:    43.464 HEAT:-80.70014
 CYCLE:    12 TIME:   0.724 TIME LEFT:  2.00D  GRAD.:    31.144 HEAT:-81.07797
 CYCLE:    13 TIME:   0.700 TIME LEFT:  2.00D  GRAD.:    27.416 HEAT:-81.11966
 CYCLE:    14 TIME:   0.380 TIME LEFT:  2.00D  GRAD.:    21.920 HEAT:-81.29790
 CYCLE:    15 TIME:   0.380 TIME LEFT:  2.00D  GRAD.:    31.062 HEAT:-81.52661
 CYCLE:    16 TIME:   0.380 TIME LEFT:  2.00D  GRAD.:    27.744 HEAT:-81.87303
 CYCLE:    17 TIME:   1.040 TIME LEFT:  2.00D  GRAD.:    17.270 HEAT:-82.03840
 CYCLE:    18 TIME:   0.376 TIME LEFT:  2.00D  GRAD.:    19.837 HEAT:-82.06949
 CYCLE:    19 TIME:   0.360 TIME LEFT:  2.00D  GRAD.:    16.821 HEAT:-82.29546
 CYCLE:    20 TIME:   0.380 TIME LEFT:  2.00D  GRAD.:    27.517 HEAT:-82.41990
 CYCLE:    21 TIME:   0.380 TIME LEFT:  2.00D  GRAD.:    31.201 HEAT:-82.52939
 CYCLE:    22 TIME:   0.696 TIME LEFT:  2.00D  GRAD.:    24.822 HEAT:-82.63676
 CYCLE:    23 TIME:   0.380 TIME LEFT:  2.00D  GRAD.:    20.128 HEAT:-82.76973
 CYCLE:    24 TIME:   0.380 TIME LEFT:  2.00D  GRAD.:    29.474 HEAT:-82.82095
 CYCLE:    25 TIME:   0.380 TIME LEFT:  2.00D  GRAD.:    27.641 HEAT:-82.95015
 CYCLE:    26 TIME:   0.380 TIME LEFT:  2.00D  GRAD.:    24.539 HEAT:-83.14633
 CYCLE:    27 TIME:   0.376 TIME LEFT:  2.00D  GRAD.:    29.173 HEAT:-83.24190
 CYCLE:    28 TIME:   0.380 TIME LEFT:  2.00D  GRAD.:    34.999 HEAT:-83.38526
 CYCLE:    29 TIME:   0.716 TIME LEFT:  2.00D  GRAD.:    25.615 HEAT:-83.53117
 CYCLE:    30 TIME:   0.380 TIME LEFT:  2.00D  GRAD.:    27.586 HEAT:-83.62771
 CYCLE:    31 TIME:   0.380 TIME LEFT:  2.00D  GRAD.:    15.493 HEAT:-83.88637
 CYCLE:    32 TIME:   1.012 TIME LEFT:  2.00D  GRAD.:    12.102 HEAT:-83.94585
 CYCLE:    33 TIME:   0.356 TIME LEFT:  2.00D  GRAD.:     9.170 HEAT:-84.05626
 CYCLE:    34 TIME:   0.352 TIME LEFT:  2.00D  GRAD.:    11.684 HEAT:-84.10103
 CYCLE:    35 TIME:   0.356 TIME LEFT:  2.00D  GRAD.:     7.665 HEAT:-84.20991
 CYCLE:    36 TIME:   0.352 TIME LEFT:  2.00D  GRAD.:    12.489 HEAT:-84.45189
 CYCLE:    37 TIME:   0.356 TIME LEFT:  2.00D  GRAD.:    11.477 HEAT:-84.53371
 CYCLE:    38 TIME:   0.356 TIME LEFT:  2.00D  GRAD.:     9.415 HEAT:-84.72243
 CYCLE:    39 TIME:   0.380 TIME LEFT:  2.00D  GRAD.:    15.921 HEAT:-84.94738
 CYCLE:    40 TIME:   0.376 TIME LEFT:  2.00D  GRAD.:    15.587 HEAT:-85.33482
 CYCLE:    41 TIME:   0.376 TIME LEFT:  2.00D  GRAD.:    32.256 HEAT:-85.55578
 CYCLE:    42 TIME:   0.400 TIME LEFT:  2.00D  GRAD.:    23.478 HEAT:-86.59200
 CYCLE:    43 TIME:   1.396 TIME LEFT:  2.00D  GRAD.:    23.338 HEAT:-86.69733
 CYCLE:    44 TIME:   0.376 TIME LEFT:  2.00D  GRAD.:    18.024 HEAT:-86.81389
 CYCLE:    45 TIME:   0.692 TIME LEFT:  2.00D  GRAD.:    14.549 HEAT:-86.82677
 CYCLE:    46 TIME:   0.352 TIME LEFT:  2.00D  GRAD.:    11.342 HEAT:-86.88981
 CYCLE:    47 TIME:   0.356 TIME LEFT:  2.00D  GRAD.:    15.981 HEAT:-87.05157
 CYCLE:    48 TIME:   0.376 TIME LEFT:  2.00D  GRAD.:    16.731 HEAT:-87.11874
 CYCLE:    49 TIME:   0.692 TIME LEFT:  2.00D  GRAD.:    13.803 HEAT:-87.14872
 CYCLE:    50 TIME:   0.356 TIME LEFT:  2.00D  GRAD.:    14.172 HEAT:-87.20519
 CYCLE:    51 TIME:   0.692 TIME LEFT:  2.00D  GRAD.:    10.046 HEAT:-87.28256
 CYCLE:    52 TIME:   0.664 TIME LEFT:  2.00D  GRAD.:     5.786 HEAT:-87.30815
 CYCLE:    53 TIME:   0.992 TIME LEFT:  2.00D  GRAD.:     3.355 HEAT:-87.31834
 CYCLE:    54 TIME:   1.296 TIME LEFT:  2.00D  GRAD.:     3.108 HEAT:-87.32015
 CYCLE:    55 TIME:   0.400 TIME LEFT:  2.00D  GRAD.:    10.098 HEAT:-87.56982
 CYCLE:    56 TIME:   0.376 TIME LEFT:  2.00D  GRAD.:    15.076 HEAT:-87.63292
 CYCLE:    57 TIME:   0.380 TIME LEFT:  2.00D  GRAD.:    20.647 HEAT:-87.66176
 CYCLE:    58 TIME:   0.376 TIME LEFT:  2.00D  GRAD.:    17.032 HEAT:-87.72469
 CYCLE:    59 TIME:   0.376 TIME LEFT:  2.00D  GRAD.:    11.828 HEAT:-87.75057
 CYCLE:    60 TIME:   0.352 TIME LEFT:  2.00D  GRAD.:    12.610 HEAT:-87.81574
 CYCLE:    61 TIME:   0.380 TIME LEFT:  2.00D  GRAD.:    14.019 HEAT:-87.82769
 CYCLE:    62 TIME:   0.692 TIME LEFT:  2.00D  GRAD.:    13.850 HEAT:-87.86161
 CYCLE:    63 TIME:   0.352 TIME LEFT:  2.00D  GRAD.:    10.511 HEAT:-87.88004
 CYCLE:    64 TIME:   0.376 TIME LEFT:  2.00D  GRAD.:    12.053 HEAT:-87.89683
 CYCLE:    65 TIME:   0.668 TIME LEFT:  2.00D  GRAD.:     8.443 HEAT:-87.90580
 CYCLE:    66 TIME:   0.352 TIME LEFT:  2.00D  GRAD.:     9.181 HEAT:-88.00546
 CYCLE:    67 TIME:   0.352 TIME LEFT:  2.00D  GRAD.:     4.878 HEAT:-88.06809
 CYCLE:    68 TIME:   1.620 TIME LEFT:  2.00D  GRAD.:     3.254 HEAT:-88.07040
 CYCLE:    69 TIME:   2.956 TIME LEFT:  2.00D  GRAD.:     2.962 HEAT:-88.07130

     TRUST RADIUS NOW LESS THAN 0.00010 OPTIMIZATION TERMINATING
      THE GEOMETRY MAY NOT BE COMPLETELY OPTIMIZED
      (TO CONTINUE, ADD 'LET DDMIN=0.0' TO THE KEYWORD LINE)

 -------------------------------------------------------------------------------
RHF PM6-DH2X  EPS=4.0 RSOLV=1.3 CHARGE=1 Singlet  BONDS AUX

 Mopac file generated by gochem :-)


     GEOMETRY OPTIMISED USING EIGENVECTOR FOLLOWING (EF).     
     SCF FIELD WAS ACHIEVED                                   


                              PM6-DH2X CALCULATION
                                                       MOPAC2012 (Version: 12.290L)
                                                       Mon May 13 17:30:40 2013
                                                       No. of days left = 157




          FINAL HEAT OF FORMATION =        -88.07128 KCAL/MOL =    -368.49022 KJ/MOL
          VAN DER WAALS AREA      =        610.35 SQUARE ANGSTROMS


          TOTAL ENERGY            =      -8008.46659 EV
          ELECTRONIC ENERGY       =     -39208.78937 EV  POINT GROUP:     C1  
          CORE-CORE REPULSION     =      31200.32278 EV
          DIELECTRIC ENERGY       =         -2.38503 EV
          COSMO AREA              =        610.35 SQUARE ANGSTROMS
          COSMO VOLUME            =        825.00 CUBIC ANGSTROMS

          GRADIENT NORM           =          2.96232
          IONIZATION POTENTIAL    =          9.281851 EV
          HOMO LUMO ENERGIES (EV) =         -9.282 -0.708
          NO. OF FILLED LEVELS    =        125
          MOLECULAR WEIGHT        =        739.644

          MOLECULAR DIMENSIONS (Angstroms)

            Atom       Atom       Distance
            H    76    H    54    16.49749
            H    52    H    74    14.47878
            H    81    H    66     8.11388


          SCF CALCULATIONS        =        119
          COMPUTATION TIME        =         42.183 SECONDS



       FINAL  POINT  AND  DERIVATIVES

   PARAMETER     ATOM    TYPE            VALUE       GRADIENT
      1          2  C    CARTESIAN X    17.817447     0.033590  KCAL/ANGSTROM
      2          2  C    CARTESIAN Y   -15.814975    -0.068116  KCAL/ANGSTROM
      3          2  C    CARTESIAN Z    19.616148     0.143921  KCAL/ANGSTROM
      4          3  N    CARTESIAN X    16.760161    -0.010347  KCAL/ANGSTROM
      5          3  N    CARTESIAN Y   -16.142567    -0.122042  KCAL/ANGSTROM
      6          3  N    CARTESIAN Z    18.752791     0.169785  KCAL/ANGSTROM
      7          4  C    CARTESIAN X    17.901687    -0.044440  KCAL/ANGSTROM
      8          4  C    CARTESIAN Y   -16.777497     0.132351  KCAL/ANGSTROM
      9          4  C    CARTESIAN Z    20.632121     0.053995  KCAL/ANGSTROM
     10          5  C    CARTESIAN X    16.211199    -0.111182  KCAL/ANGSTROM
     11          5  C    CARTESIAN Y   -17.299478    -0.108969  KCAL/ANGSTROM
     12          5  C    CARTESIAN Z    19.255041    -0.193852  KCAL/ANGSTROM
     13          6  N    CARTESIAN X    16.878701    -0.098966  KCAL/ANGSTROM
     14          6  N    CARTESIAN Y   -17.697163     0.314467  KCAL/ANGSTROM
     15          6  N    CARTESIAN Z    20.402609    -0.210445  KCAL/ANGSTROM
     16          7  C    CARTESIAN X    19.922329     0.037993  KCAL/ANGSTROM
     17          7  C    CARTESIAN Y   -12.082218     0.047640  KCAL/ANGSTROM
     18          7  C    CARTESIAN Z    14.144826    -0.023773  KCAL/ANGSTROM
     19          8  C    CARTESIAN X    18.805312     0.014251  KCAL/ANGSTROM
     20          8  C    CARTESIAN Y   -12.940373     0.060361  KCAL/ANGSTROM
     21          8  C    CARTESIAN Z    14.567985     0.023459  KCAL/ANGSTROM
     22          9  N    CARTESIAN X    17.711142    -0.086071  KCAL/ANGSTROM
     23          9  N    CARTESIAN Y   -13.218973     0.022165  KCAL/ANGSTROM
     24          9  N    CARTESIAN Z    13.731564     0.012831  KCAL/ANGSTROM
     25         10  C    CARTESIAN X    18.555984    -0.004995  KCAL/ANGSTROM
     26         10  C    CARTESIAN Y   -13.615387     0.007256  KCAL/ANGSTROM
     27         10  C    CARTESIAN Z    15.768590    -0.038939  KCAL/ANGSTROM
     28         12  N    CARTESIAN X    17.330541     0.090147  KCAL/ANGSTROM
     29         12  N    CARTESIAN Y   -14.293805     0.098567  KCAL/ANGSTROM
     30         12  N    CARTESIAN Z    15.691652    -0.075974  KCAL/ANGSTROM
     31         13  C    CARTESIAN X    22.308733     0.046243  KCAL/ANGSTROM
     32         13  C    CARTESIAN Y   -16.827347     0.029832  KCAL/ANGSTROM
     33         13  C    CARTESIAN Z    16.778893    -0.067755  KCAL/ANGSTROM
     34         14  C    CARTESIAN X    20.961820     0.046834  KCAL/ANGSTROM
     35         14  C    CARTESIAN Y   -17.387927    -0.123616  KCAL/ANGSTROM
     36         14  C    CARTESIAN Z    16.991255     0.002675  KCAL/ANGSTROM
     37         15  N    CARTESIAN X    20.660442    -0.122744  KCAL/ANGSTROM
     38         15  N    CARTESIAN Y   -18.378825    -0.202463  KCAL/ANGSTROM
     39         15  N    CARTESIAN Z    17.942341    -0.060611  KCAL/ANGSTROM
     40         16  C    CARTESIAN X    19.788051     0.105521  KCAL/ANGSTROM
     41         16  C    CARTESIAN Y   -17.070797    -0.198822  KCAL/ANGSTROM
     42         16  C    CARTESIAN Z    16.294628     0.276841  KCAL/ANGSTROM
     43         17  C    CARTESIAN X    19.322335     0.284510  KCAL/ANGSTROM
     44         17  C    CARTESIAN Y   -18.657852    -0.122861  KCAL/ANGSTROM
     45         17  C    CARTESIAN Z    17.822507     0.207921  KCAL/ANGSTROM
     46         18  N    CARTESIAN X    18.772506    -0.190562  KCAL/ANGSTROM
     47         18  N    CARTESIAN Y   -17.875515    -0.380476  KCAL/ANGSTROM
     48         18  N    CARTESIAN Z    16.818522     0.136379  KCAL/ANGSTROM
     49         19  C    CARTESIAN X    22.399342    -0.115987  KCAL/ANGSTROM
     50         19  C    CARTESIAN Y   -22.721343    -0.119281  KCAL/ANGSTROM
     51         19  C    CARTESIAN Z    19.358070    -0.086649  KCAL/ANGSTROM
     52         20  C    CARTESIAN X    21.208468    -0.184056  KCAL/ANGSTROM
     53         20  C    CARTESIAN Y   -22.144520    -0.034214  KCAL/ANGSTROM
     54         20  C    CARTESIAN Z    20.009234     0.259023  KCAL/ANGSTROM
     55         22  C    CARTESIAN X    20.232284    -0.003733  KCAL/ANGSTROM
     56         22  C    CARTESIAN Y   -22.815055    -0.078577  KCAL/ANGSTROM
     57         22  C    CARTESIAN Z    20.761535     0.183177  KCAL/ANGSTROM
     58         23  C    CARTESIAN X    19.706855    -0.154263  KCAL/ANGSTROM
     59         23  C    CARTESIAN Y   -20.637021     0.346287  KCAL/ANGSTROM
     60         23  C    CARTESIAN Z    20.684790     0.171854  KCAL/ANGSTROM
     61         24  N    CARTESIAN X    19.304960     0.019271  KCAL/ANGSTROM
     62         24  N    CARTESIAN Y   -21.862389     0.120805  KCAL/ANGSTROM
     63         24  N    CARTESIAN Z    21.176306    -0.069853  KCAL/ANGSTROM
     64         25  C    CARTESIAN X    24.967809    -0.028336  KCAL/ANGSTROM
     65         25  C    CARTESIAN Y   -17.862404     0.068551  KCAL/ANGSTROM
     66         25  C    CARTESIAN Z    19.755356     0.097735  KCAL/ANGSTROM
     67         26  C    CARTESIAN X    24.751853    -0.241290  KCAL/ANGSTROM
     68         26  C    CARTESIAN Y   -18.788927    -0.039185  KCAL/ANGSTROM
     69         26  C    CARTESIAN Z    18.632798    -0.009214  KCAL/ANGSTROM
     70         27  N    CARTESIAN X    23.551105     0.069287  KCAL/ANGSTROM
     71         27  N    CARTESIAN Y   -19.478218     0.069016  KCAL/ANGSTROM
     72         27  N    CARTESIAN Z    18.389970     0.083382  KCAL/ANGSTROM
     73         28  C    CARTESIAN X    25.679369     0.111069  KCAL/ANGSTROM
     74         28  C    CARTESIAN Y   -19.157852     0.205495  KCAL/ANGSTROM
     75         28  C    CARTESIAN Z    17.646626    -0.227440  KCAL/ANGSTROM
     76         29  C    CARTESIAN X    23.752738     0.165826  KCAL/ANGSTROM
     77         29  C    CARTESIAN Y   -20.252587     0.095392  KCAL/ANGSTROM
     78         29  C    CARTESIAN Z    17.270843     0.083308  KCAL/ANGSTROM
     79         30  N    CARTESIAN X    25.044916     0.105796  KCAL/ANGSTROM
     80         30  N    CARTESIAN Y   -20.072119     0.143234  KCAL/ANGSTROM
     81         30  N    CARTESIAN Z    16.805466    -0.078651  KCAL/ANGSTROM
     82         31  C    CARTESIAN X    22.275739     0.033639  KCAL/ANGSTROM
     83         31  C    CARTESIAN Y   -17.502018    -0.765475  KCAL/ANGSTROM
     84         31  C    CARTESIAN Z    23.028957     0.261342  KCAL/ANGSTROM
     85         32  C    CARTESIAN X    22.548298     0.543491  KCAL/ANGSTROM
     86         32  C    CARTESIAN Y   -18.416176    -0.238023  KCAL/ANGSTROM
     87         32  C    CARTESIAN Z    21.872701     0.096945  KCAL/ANGSTROM
     88         33  O    CARTESIAN X    21.948375     0.500677  KCAL/ANGSTROM
     89         33  O    CARTESIAN Y   -18.068899    -0.312270  KCAL/ANGSTROM
     90         33  O    CARTESIAN Z    20.771980    -0.065834  KCAL/ANGSTROM
     91         34  O    CARTESIAN X    23.297345     0.662520  KCAL/ANGSTROM
     92         34  O    CARTESIAN Y   -19.396988    -0.170385  KCAL/ANGSTROM
     93         34  O    CARTESIAN Z    21.950332     0.043881  KCAL/ANGSTROM
     94         35  C    CARTESIAN X    11.199562     0.299158  KCAL/ANGSTROM
     95         35  C    CARTESIAN Y   -17.067866    -0.087855  KCAL/ANGSTROM
     96         35  C    CARTESIAN Z    17.908382     0.114539  KCAL/ANGSTROM
     97         36  C    CARTESIAN X    12.478238     0.162106  KCAL/ANGSTROM
     98         36  C    CARTESIAN Y   -16.768800    -0.000644  KCAL/ANGSTROM
     99         36  C    CARTESIAN Z    17.247049     0.187728  KCAL/ANGSTROM
    100         37  N    CARTESIAN X    12.872831     0.307413  KCAL/ANGSTROM
    101         37  N    CARTESIAN Y   -17.363854     0.224895  KCAL/ANGSTROM
    102         37  N    CARTESIAN Z    16.037092     0.114275  KCAL/ANGSTROM
    103         38  C    CARTESIAN X    13.520851     0.307273  KCAL/ANGSTROM
    104         38  C    CARTESIAN Y   -15.911331    -0.145086  KCAL/ANGSTROM
    105         38  C    CARTESIAN Z    17.613770    -0.101921  KCAL/ANGSTROM
    106         39  C    CARTESIAN X    14.136322     0.072017  KCAL/ANGSTROM
    107         39  C    CARTESIAN Y   -16.854374    -0.202764  KCAL/ANGSTROM
    108         39  C    CARTESIAN Z    15.711363    -0.148202  KCAL/ANGSTROM
    109         40  N    CARTESIAN X    14.546969     0.325375  KCAL/ANGSTROM
    110         40  N    CARTESIAN Y   -15.964802    -0.126103  KCAL/ANGSTROM
    111         40  N    CARTESIAN Z    16.659574    -0.184500  KCAL/ANGSTROM
    112         41  C    CARTESIAN X    14.962625     0.237319  KCAL/ANGSTROM
    113         41  C    CARTESIAN Y   -20.538502     0.210851  KCAL/ANGSTROM
    114         41  C    CARTESIAN Z    22.526406     0.028522  KCAL/ANGSTROM
    115         42  C    CARTESIAN X    16.352693    -0.202790  KCAL/ANGSTROM
    116         42  C    CARTESIAN Y   -20.911466     0.225788  KCAL/ANGSTROM
    117         42  C    CARTESIAN Z    22.108704     0.442361  KCAL/ANGSTROM
    118         43  O    CARTESIAN X    16.818497    -0.185293  KCAL/ANGSTROM
    119         43  O    CARTESIAN Y   -22.052669    -0.067017  KCAL/ANGSTROM
    120         43  O    CARTESIAN Z    22.373884    -0.377648  KCAL/ANGSTROM
    121         44  O    CARTESIAN X    17.072945    -0.037360  KCAL/ANGSTROM
    122         44  O    CARTESIAN Y   -20.080279    -0.001977  KCAL/ANGSTROM
    123         44  O    CARTESIAN Z    21.476222     0.008639  KCAL/ANGSTROM
    124         45 Cu    CARTESIAN X    16.350404     0.108866  KCAL/ANGSTROM
    125         45 Cu    CARTESIAN Y   -15.228892     0.155872  KCAL/ANGSTROM
    126         45 Cu    CARTESIAN Z    17.076361     0.058687  KCAL/ANGSTROM
    127         46 Zn    CARTESIAN X    21.827384    -0.100302  KCAL/ANGSTROM
    128         46 Zn    CARTESIAN Y   -19.252734     0.025367  KCAL/ANGSTROM
    129         46 Zn    CARTESIAN Z    19.257766    -0.260410  KCAL/ANGSTROM
    130         47  H    CARTESIAN X    23.325272    -0.128821  KCAL/ANGSTROM
    131         47  H    CARTESIAN Y   -22.200100     0.061871  KCAL/ANGSTROM
    132         47  H    CARTESIAN Z    19.661108     0.012479  KCAL/ANGSTROM
    133         48  H    CARTESIAN X    22.330661    -0.315669  KCAL/ANGSTROM
    134         48  H    CARTESIAN Y   -22.674305     0.151769  KCAL/ANGSTROM
    135         48  H    CARTESIAN Z    18.260550    -0.005508  KCAL/ANGSTROM
    136         49  H    CARTESIAN X    22.534034    -0.156130  KCAL/ANGSTROM
    137         49  H    CARTESIAN Y   -23.781342     0.113062  KCAL/ANGSTROM
    138         49  H    CARTESIAN Z    19.627080    -0.049195  KCAL/ANGSTROM
    139         50  H    CARTESIAN X    20.428360    -0.244296  KCAL/ANGSTROM
    140         50  H    CARTESIAN Y   -12.465809     0.031619  KCAL/ANGSTROM
    141         50  H    CARTESIAN Z    13.242835    -0.030176  KCAL/ANGSTROM
    142         51  H    CARTESIAN X    20.693349     0.049118  KCAL/ANGSTROM
    143         51  H    CARTESIAN Y   -11.992084     0.246104  KCAL/ANGSTROM
    144         51  H    CARTESIAN Z    14.927778    -0.229746  KCAL/ANGSTROM
    145         52  H    CARTESIAN X    19.591458    -0.156806  KCAL/ANGSTROM
    146         52  H    CARTESIAN Y   -11.054636     0.096659  KCAL/ANGSTROM
    147         52  H    CARTESIAN Z    13.911306    -0.124357  KCAL/ANGSTROM
    148         53  H    CARTESIAN X    11.076960     0.170893  KCAL/ANGSTROM
    149         53  H    CARTESIAN Y   -18.142546     0.174682  KCAL/ANGSTROM
    150         53  H    CARTESIAN Z    18.122435    -0.008006  KCAL/ANGSTROM
    151         54  H    CARTESIAN X    10.333243     0.223696  KCAL/ANGSTROM
    152         54  H    CARTESIAN Y   -16.758477     0.129241  KCAL/ANGSTROM
    153         54  H    CARTESIAN Z    17.299243    -0.073014  KCAL/ANGSTROM
    154         55  H    CARTESIAN X    11.109726     0.180280  KCAL/ANGSTROM
    155         55  H    CARTESIAN Y   -16.541710     0.074904  KCAL/ANGSTROM
    156         55  H    CARTESIAN Z    18.874268     0.004065  KCAL/ANGSTROM
    157         56  H    CARTESIAN X    19.418693    -0.107187  KCAL/ANGSTROM
    158         56  H    CARTESIAN Y   -14.804389    -0.039561  KCAL/ANGSTROM
    159         56  H    CARTESIAN Z    18.624581    -0.080175  KCAL/ANGSTROM
    160         57  H    CARTESIAN X    19.216591     0.150170  KCAL/ANGSTROM
    161         57  H    CARTESIAN Y   -14.353682     0.161850  KCAL/ANGSTROM
    162         57  H    CARTESIAN Z    20.322140     0.029992  KCAL/ANGSTROM
    163         58  H    CARTESIAN X    18.077930    -0.245318  KCAL/ANGSTROM
    164         58  H    CARTESIAN Y   -13.739408    -0.081990  KCAL/ANGSTROM
    165         58  H    CARTESIAN Z    19.115716    -0.029116  KCAL/ANGSTROM
    166         59  H    CARTESIAN X    22.284153     0.173850  KCAL/ANGSTROM
    167         59  H    CARTESIAN Y   -15.919647    -0.160394  KCAL/ANGSTROM
    168         59  H    CARTESIAN Z    16.156357    -0.206845  KCAL/ANGSTROM
    169         60  H    CARTESIAN X    22.971513    -0.126861  KCAL/ANGSTROM
    170         60  H    CARTESIAN Y   -17.548087    -0.405684  KCAL/ANGSTROM
    171         60  H    CARTESIAN Z    16.269509    -0.202741  KCAL/ANGSTROM
    172         61  H    CARTESIAN X    22.803316     0.125220  KCAL/ANGSTROM
    173         61  H    CARTESIAN Y   -16.548931    -0.100023  KCAL/ANGSTROM
    174         61  H    CARTESIAN Z    17.727414    -0.132465  KCAL/ANGSTROM
    175         62  H    CARTESIAN X    24.210566     0.070477  KCAL/ANGSTROM
    176         62  H    CARTESIAN Y   -17.058992     0.236744  KCAL/ANGSTROM
    177         62  H    CARTESIAN Z    19.796089    -0.039367  KCAL/ANGSTROM
    178         63  H    CARTESIAN X    25.957651     0.077706  KCAL/ANGSTROM
    179         63  H    CARTESIAN Y   -17.385965    -0.051848  KCAL/ANGSTROM
    180         63  H    CARTESIAN Z    19.722321     0.077653  KCAL/ANGSTROM
    181         64  H    CARTESIAN X    24.890629    -0.545658  KCAL/ANGSTROM
    182         64  H    CARTESIAN Y   -18.396989     0.113638  KCAL/ANGSTROM
    183         64  H    CARTESIAN Z    20.727544    -0.040104  KCAL/ANGSTROM
    184         65  H    CARTESIAN X    22.334650     0.203510  KCAL/ANGSTROM
    185         65  H    CARTESIAN Y   -16.444955     0.266753  KCAL/ANGSTROM
    186         65  H    CARTESIAN Z    22.734200    -0.281078  KCAL/ANGSTROM
    187         66  H    CARTESIAN X    22.980146    -0.109267  KCAL/ANGSTROM
    188         66  H    CARTESIAN Y   -17.670388     0.006098  KCAL/ANGSTROM
    189         66  H    CARTESIAN Z    23.854842     0.014976  KCAL/ANGSTROM
    190         67  H    CARTESIAN X    21.260865     0.183658  KCAL/ANGSTROM
    191         67  H    CARTESIAN Y   -17.667253    -0.217679  KCAL/ANGSTROM
    192         67  H    CARTESIAN Z    23.420688    -0.198940  KCAL/ANGSTROM
    193         68  H    CARTESIAN X    18.594976    -0.181459  KCAL/ANGSTROM
    194         68  H    CARTESIAN Y   -16.855538     0.149251  KCAL/ANGSTROM
    195         68  H    CARTESIAN Z    21.452398     0.154711  KCAL/ANGSTROM
    196         69  H    CARTESIAN X    15.361039     0.207910  KCAL/ANGSTROM
    197         69  H    CARTESIAN Y   -17.822359     0.042858  KCAL/ANGSTROM
    198         69  H    CARTESIAN Z    18.836581     0.173023  KCAL/ANGSTROM
    199         70  H    CARTESIAN X    19.169990     0.113259  KCAL/ANGSTROM
    200         70  H    CARTESIAN Y   -13.644633    -0.088141  KCAL/ANGSTROM
    201         70  H    CARTESIAN Z    16.653492    -0.029366  KCAL/ANGSTROM
    202         71  H    CARTESIAN X    15.898242     0.019552  KCAL/ANGSTROM
    203         71  H    CARTESIAN Y   -14.412151     0.006129  KCAL/ANGSTROM
    204         71  H    CARTESIAN Z    14.045122     0.007469  KCAL/ANGSTROM
    205         72  H    CARTESIAN X    19.628828    -0.211774  KCAL/ANGSTROM
    206         72  H    CARTESIAN Y   -16.356659     0.363648  KCAL/ANGSTROM
    207         72  H    CARTESIAN Z    15.501769    -0.529492  KCAL/ANGSTROM
    208         73  H    CARTESIAN X    18.758507     0.256243  KCAL/ANGSTROM
    209         73  H    CARTESIAN Y   -19.385989    -0.028316  KCAL/ANGSTROM
    210         73  H    CARTESIAN Z    18.405521    -0.281296  KCAL/ANGSTROM
    211         74  H    CARTESIAN X    20.160719    -0.052881  KCAL/ANGSTROM
    212         74  H    CARTESIAN Y   -23.858579     0.384133  KCAL/ANGSTROM
    213         74  H    CARTESIAN Z    21.017878     0.232427  KCAL/ANGSTROM
    214         75  H    CARTESIAN X    19.161389     0.204488  KCAL/ANGSTROM
    215         75  H    CARTESIAN Y   -19.708821     0.200353  KCAL/ANGSTROM
    216         75  H    CARTESIAN Z    20.872244    -0.113052  KCAL/ANGSTROM
    217         76  H    CARTESIAN X    26.698634    -0.100928  KCAL/ANGSTROM
    218         76  H    CARTESIAN Y   -18.830916     0.346112  KCAL/ANGSTROM
    219         76  H    CARTESIAN Z    17.514001     0.006639  KCAL/ANGSTROM
    220         77  H    CARTESIAN X    23.025684     0.320817  KCAL/ANGSTROM
    221         77  H    CARTESIAN Y   -20.917822    -0.040099  KCAL/ANGSTROM
    222         77  H    CARTESIAN Z    16.809055    -0.020842  KCAL/ANGSTROM
    223         78  H    CARTESIAN X    13.588588     0.550660  KCAL/ANGSTROM
    224         78  H    CARTESIAN Y   -15.279305    -0.077730  KCAL/ANGSTROM
    225         78  H    CARTESIAN Z    18.485394     0.046359  KCAL/ANGSTROM
    226         79  H    CARTESIAN X    14.684618    -0.040597  KCAL/ANGSTROM
    227         79  H    CARTESIAN Y   -17.142251    -0.162126  KCAL/ANGSTROM
    228         79  H    CARTESIAN Z    14.824166     0.069530  KCAL/ANGSTROM
    229         80  H    CARTESIAN X    18.400531     0.075381  KCAL/ANGSTROM
    230         80  H    CARTESIAN Y   -22.020289    -0.130736  KCAL/ANGSTROM
    231         80  H    CARTESIAN Z    21.707732     0.184964  KCAL/ANGSTROM
    232         81  H    CARTESIAN X    25.464072     0.038739  KCAL/ANGSTROM
    233         81  H    CARTESIAN Y   -20.528401     0.309199  KCAL/ANGSTROM
    234         81  H    CARTESIAN Z    16.003976     0.034019  KCAL/ANGSTROM
    235         82  H    CARTESIAN X    17.805477     0.065142  KCAL/ANGSTROM
    236         82  H    CARTESIAN Y   -17.871899    -0.035550  KCAL/ANGSTROM
    237         82  H    CARTESIAN Z    16.524663    -0.139880  KCAL/ANGSTROM
    238         83  H    CARTESIAN X    16.737409     0.110498  KCAL/ANGSTROM
    239         83  H    CARTESIAN Y   -18.603279    -0.073376  KCAL/ANGSTROM
    240         83  H    CARTESIAN Z    20.946687     0.222539  KCAL/ANGSTROM
    241         84  H    CARTESIAN X    17.575157    -0.086605  KCAL/ANGSTROM
    242         84  H    CARTESIAN Y   -12.871970     0.085776  KCAL/ANGSTROM
    243         84  H    CARTESIAN Z    12.790070     0.054221  KCAL/ANGSTROM
    244         85  H    CARTESIAN X    12.335714    -0.278839  KCAL/ANGSTROM
    245         85  H    CARTESIAN Y   -18.031123     0.044807  KCAL/ANGSTROM
    246         85  H    CARTESIAN Z    15.497991    -0.154766  KCAL/ANGSTROM
    247         86  H    CARTESIAN X    14.969767    -0.274776  KCAL/ANGSTROM
    248         86  H    CARTESIAN Y   -19.698322    -0.205170  KCAL/ANGSTROM
    249         86  H    CARTESIAN Z    23.234022    -0.170997  KCAL/ANGSTROM
    250         87  H    CARTESIAN X    14.447776     0.066550  KCAL/ANGSTROM
    251         87  H    CARTESIAN Y   -21.375614    -0.117144  KCAL/ANGSTROM
    252         87  H    CARTESIAN Z    23.018639     0.117919  KCAL/ANGSTROM
    253         88  H    CARTESIAN X    14.354428     0.122472  KCAL/ANGSTROM
    254         88  H    CARTESIAN Y   -20.229147     0.032912  KCAL/ANGSTROM
    255         88  H    CARTESIAN Z    21.667490    -0.017732  KCAL/ANGSTROM




   ATOM   CHEMICAL          X               Y               Z
  NUMBER   SYMBOL      (ANGSTROMS)     (ANGSTROMS)     (ANGSTROMS)
 
     1       C         18.66399000    -14.62600000     19.40799000   
     2       C         17.81744699  * -15.81497503  *  19.61614846  *
     3       N         16.76016068  * -16.14256662  *  18.75279088  *
     4       C         17.90168670  * -16.77749707  *  20.63212102  *
     5       C         16.21119884  * -17.29947811  *  19.25504053  *
     6       N         16.87870110  * -17.69716265  *  20.40260903  *
     7       C         19.92232854  * -12.08221767  *  14.14482568  *
     8       C         18.80531166  * -12.94037261  *  14.56798496  *
     9       N         17.71114221  * -13.21897322  *  13.73156421  *
    10       C         18.55598403  * -13.61538684  *  15.76859047  *
    11       C         16.83564000    -14.04321000     14.44739000   
    12       N         17.33054083  * -14.29380460  *  15.69165229  *
    13       C         22.30873330  * -16.82734696  *  16.77889337  *
    14       C         20.96182028  * -17.38792723  *  16.99125512  *
    15       N         20.66044245  * -18.37882539  *  17.94234064  *
    16       C         19.78805095  * -17.07079652  *  16.29462807  *
    17       C         19.32233513  * -18.65785205  *  17.82250748  *
    18       N         18.77250556  * -17.87551495  *  16.81852157  *
    19       C         22.39934218  * -22.72134330  *  19.35806975  *
    20       C         21.20846758  * -22.14452025  *  20.00923410  *
    21       N         20.86801000    -20.78304000     19.95438000   
    22       C         20.23228396  * -22.81505481  *  20.76153532  *
    23       C         19.70685527  * -20.63702125  *  20.68479046  *
    24       N         19.30495962  * -21.86238852  *  21.17630580  *
    25       C         24.96780916  * -17.86240405  *  19.75535583  *
    26       C         24.75185304  * -18.78892659  *  18.63279833  *
    27       N         23.55110474  * -19.47821751  *  18.38996997  *
    28       C         25.67936893  * -19.15785245  *  17.64662595  *
    29       C         23.75273757  * -20.25258664  *  17.27084276  *
    30       N         25.04491629  * -20.07211876  *  16.80546573  *
    31       C         22.27573858  * -17.50201789  *  23.02895675  *
    32       C         22.54829838  * -18.41617565  *  21.87270066  *
    33       O         21.94837533  * -18.06889865  *  20.77197986  *
    34       O         23.29734488  * -19.39698769  *  21.95033232  *
    35       C         11.19956229  * -17.06786577  *  17.90838162  *
    36       C         12.47823846  * -16.76879993  *  17.24704948  *
    37       N         12.87283092  * -17.36385403  *  16.03709218  *
    38       C         13.52085131  * -15.91133053  *  17.61376963  *
    39       C         14.13632209  * -16.85437433  *  15.71136300  *
    40       N         14.54696867  * -15.96480181  *  16.65957353  *
    41       C         14.96262512  * -20.53850197  *  22.52640570  *
    42       C         16.35269333  * -20.91146553  *  22.10870359  *
    43       O         16.81849711  * -22.05266945  *  22.37388383  *
    44       O         17.07294505  * -20.08027862  *  21.47622206  *
    45      Cu         16.35040444  * -15.22889207  *  17.07636054  *
    46      Zn         21.82738371  * -19.25273360  *  19.25776601  *
    47       H         23.32527246  * -22.20009981  *  19.66110763  *
    48       H         22.33066089  * -22.67430525  *  18.26054985  *
    49       H         22.53403415  * -23.78134191  *  19.62707996  *
    50       H         20.42836047  * -12.46580880  *  13.24283467  *
    51       H         20.69334940  * -11.99208448  *  14.92777802  *
    52       H         19.59145810  * -11.05463600  *  13.91130566  *
    53       H         11.07696041  * -18.14254632  *  18.12243532  *
    54       H         10.33324293  * -16.75847655  *  17.29924301  *
    55       H         11.10972602  * -16.54171006  *  18.87426831  *
    56       H         19.41869313  * -14.80438890  *  18.62458137  *
    57       H         19.21659054  * -14.35368161  *  20.32213963  *
    58       H         18.07792965  * -13.73940834  *  19.11571579  *
    59       H         22.28415333  * -15.91964733  *  16.15635655  *
    60       H         22.97151319  * -17.54808741  *  16.26950877  *
    61       H         22.80331637  * -16.54893120  *  17.72741444  *
    62       H         24.21056606  * -17.05899222  *  19.79608904  *
    63       H         25.95765052  * -17.38596527  *  19.72232140  *
    64       H         24.89062891  * -18.39698908  *  20.72754362  *
    65       H         22.33464971  * -16.44495471  *  22.73419965  *
    66       H         22.98014612  * -17.67038835  *  23.85484205  *
    67       H         21.26086471  * -17.66725330  *  23.42068817  *
    68       H         18.59497573  * -16.85553802  *  21.45239842  *
    69       H         15.36103945  * -17.82235902  *  18.83658060  *
    70       H         19.16998953  * -13.64463272  *  16.65349246  *
    71       H         15.89824186  * -14.41215086  *  14.04512191  *
    72       H         19.62882805  * -16.35665881  *  15.50176945  *
    73       H         18.75850670  * -19.38598887  *  18.40552141  *
    74       H         20.16071886  * -23.85857853  *  21.01787816  *
    75       H         19.16138892  * -19.70882106  *  20.87224414  *
    76       H         26.69863400  * -18.83091576  *  17.51400074  *
    77       H         23.02568407  * -20.91782224  *  16.80905491  *
    78       H         13.58858835  * -15.27930537  *  18.48539375  *
    79       H         14.68461839  * -17.14225081  *  14.82416581  *
    80       H         18.40053064  * -22.02028917  *  21.70773208  *
    81       H         25.46407177  * -20.52840062  *  16.00397582  *
    82       H         17.80547728  * -17.87189867  *  16.52466317  *
    83       H         16.73740916  * -18.60327941  *  20.94668740  *
    84       H         17.57515729  * -12.87196978  *  12.79007025  *
    85       H         12.33571367  * -18.03112280  *  15.49799095  *
    86       H         14.96976651  * -19.69832210  *  23.23402163  *
    87       H         14.44777582  * -21.37561365  *  23.01863898  *
    88       H         14.35442803  * -20.22914667  *  21.66748953  *

           Empirical Formula: C28 H42 N12 O4 Cu Zn  =    88 atoms



      MOLECULAR POINT GROUP   :   C1  


                  EIGENVALUES  
 -36.46050 -35.75502 -35.64662 -35.38067 -35.17208 -35.02050 -32.37885 -31.15590
 -31.07645 -31.01145 -30.80479 -30.55315 -30.17853 -30.13632 -29.41042 -29.06989
 -28.18361 -28.12420 -28.02547 -27.87626 -27.58636 -27.52141 -26.45879 -26.25194
 -25.70889 -25.36436 -25.33498 -25.09226 -25.02889 -24.94420 -23.19033 -22.81691
 -22.75392 -22.39390 -22.21921 -22.09096 -21.79830 -21.71010 -21.55171 -21.26789
 -20.83062 -20.79990 -20.25295 -20.02653 -19.82470 -19.64849 -19.42824 -19.13012
 -19.08608 -18.81316 -17.44746 -16.86270 -16.81578 -16.74449 -16.68571 -16.57298
 -16.55710 -16.51791 -16.46661 -16.39518 -16.24911 -16.22316 -16.18803 -16.15340
 -16.11361 -16.06804 -15.96000 -15.87221 -15.76221 -15.67231 -15.60046 -15.53641
 -15.49955 -15.46598 -15.41506 -15.33350 -15.23588 -15.10510 -15.03885 -14.97045
 -14.90656 -14.83832 -14.76642 -14.63916 -14.57608 -14.54810 -14.53913 -14.50562
 -14.46234 -14.32748 -14.28588 -14.17472 -13.96390 -13.85973 -13.84676 -13.65848
 -13.63338 -13.56605 -13.47772 -13.18777 -13.17414 -12.99099 -12.20458 -12.08852
 -11.88528 -11.87117 -11.68751 -11.65669 -11.56764 -11.48565 -11.27031 -11.13040
 -10.88772 -10.87229 -10.85945 -10.70834 -10.69500 -10.63983 -10.47415 -10.42564
 -10.31834 -10.02043  -9.96818  -9.86144  -9.28185  -0.70821  -0.66169  -0.50243
  -0.40454  -0.37000  -0.13330  -0.04363  -0.00224   0.00196   0.09394   0.17626
   0.42205   0.46524   0.51887   0.72275   0.73456   0.78458   0.90236   1.19246
   1.29409   1.43703   1.58306   1.64281   2.00945   2.20287   2.43698   2.45315
   2.58838   2.69208   2.74204   2.86230   2.90909   2.99030   3.01180   3.19167
   3.19879   3.21014   3.28469   3.29885   3.36721   3.40658   3.50219   3.58688
   3.66524   3.71032   3.79038   3.80191   3.88346   3.89814   3.94822   4.05697
   4.06597   4.09846   4.21005   4.29370   4.35076   4.39215   4.39463   4.44851
   4.47401   4.48062   4.52672   4.53915   4.57000   4.59048   4.61728   4.62881
   4.65929   4.68126   4.69228   4.74104   4.76411   4.81584   4.86212   4.88372
   4.96907   4.97516   4.99906   5.01406   5.03530   5.08612   5.09818   5.10294
   5.14675   5.15649   5.15949   5.22121   5.26866   5.27129   5.30414   5.39285
   5.40952   5.41475   5.50506   5.56590   5.65499   5.82447   5.94851   6.00808
   6.17225   6.21229   6.21551   6.33161 124.64290 124.94205 125.06858


              NET ATOMIC CHARGES AND DIPOLE CONTRIBUTIONS

  ATOM NO.   TYPE          CHARGE      No. of ELECS.   s-Pop       p-Pop       d-Pop       
    1          C          -0.467046        4.4670     1.07641     3.39063
    2          C           0.081417        3.9186     1.08809     2.83050
    3          N          -0.340683        5.3407     1.66331     3.67737
    4          C          -0.222297        4.2223     1.11802     3.10427
    5          C          -0.063724        4.0637     1.12455     2.93917
    6          N          -0.181580        5.1816     1.47632     3.70526
    7          C          -0.493311        4.4933     1.07732     3.41599
    8          C           0.095514        3.9045     1.08933     2.81516
    9          N          -0.207792        5.2078     1.45126     3.75653
   10          C          -0.227826        4.2278     1.11839     3.10944
   11          C          -0.051765        4.0518     1.12843     2.92334
   12          N          -0.252735        5.2527     1.65104     3.60169
   13          C          -0.475888        4.4759     1.07704     3.39885
   14          C           0.118065        3.8819     1.08656     2.79537
   15          N          -0.111437        5.1114     1.52793     3.58350
   16          C          -0.242152        4.2422     1.11864     3.12351
   17          C          -0.025225        4.0252     1.12701     2.89821
   18          N          -0.115901        5.1159     1.42783     3.68807
   19          C          -0.475465        4.4755     1.07681     3.39865
   20          C           0.099941        3.9001     1.08517     2.81488
   21          N          -0.135038        5.1350     1.51539     3.61965
   22          C          -0.235576        4.2356     1.11653     3.11904
   23          C          -0.025433        4.0254     1.12788     2.89755
   24          N          -0.134659        5.1347     1.46197     3.67269
   25          C          -0.491215        4.4912     1.07930     3.41191
   26          C           0.142168        3.8578     1.08879     2.76904
   27          N          -0.095761        5.0958     1.51692     3.57884
   28          C          -0.257044        4.2570     1.12020     3.13684
   29          C          -0.062014        4.0620     1.12628     2.93574
   30          N          -0.103287        5.1033     1.42669     3.67660
   31          C          -0.621948        4.6219     1.10235     3.51959
   32          C           0.764570        3.2354     1.05626     2.17917
   33          O          -0.608976        6.6090     1.77707     4.83190
   34          O          -0.699021        6.6990     1.85905     4.83997
   35          C          -0.491911        4.4919     1.07712     3.41479
   36          C           0.085947        3.9141     1.08907     2.82498
   37          N          -0.209380        5.2094     1.45132     3.75806
   38          C          -0.217596        4.2176     1.11993     3.09767
   39          C          -0.063552        4.0636     1.12644     2.93711
   40          N          -0.260346        5.2603     1.67372     3.58663
   41          C          -0.650364        4.6504     1.10486     3.54550
   42          C           0.779947        3.2201     1.04885     2.17120
   43          O          -0.776349        6.7763     1.86467     4.91168
   44          O          -0.823096        6.8231     1.85800     4.96510
   45         Cu           0.604553       10.3954     0.50435     0.00121     9.88989
   46         Zn           0.194056        1.8059     0.90072     0.90523
   47          H           0.188749        0.8113     0.81125
   48          H           0.171405        0.8286     0.82859
   49          H           0.182122        0.8179     0.81788
   50          H           0.187128        0.8129     0.81287
   51          H           0.190847        0.8092     0.80915
   52          H           0.189512        0.8105     0.81049
   53          H           0.185933        0.8141     0.81407
   54          H           0.187303        0.8127     0.81270
   55          H           0.191497        0.8085     0.80850
   56          H           0.169489        0.8305     0.83051
   57          H           0.179406        0.8206     0.82059
   58          H           0.174926        0.8251     0.82507
   59          H           0.179898        0.8201     0.82010
   60          H           0.182639        0.8174     0.81736
   61          H           0.193403        0.8066     0.80660
   62          H           0.191693        0.8083     0.80831
   63          H           0.179310        0.8207     0.82069
   64          H           0.211971        0.7880     0.78803
   65          H           0.195883        0.8041     0.80412
   66          H           0.196424        0.8036     0.80358
   67          H           0.201337        0.7987     0.79866
   68          H           0.202269        0.7977     0.79773
   69          H           0.199008        0.8010     0.80099
   70          H           0.194295        0.8057     0.80571
   71          H           0.206591        0.7934     0.79341
   72          H           0.207910        0.7921     0.79209
   73          H           0.225108        0.7749     0.77489
   74          H           0.206939        0.7931     0.79306
   75          H           0.229509        0.7705     0.77049
   76          H           0.213769        0.7862     0.78623
   77          H           0.222819        0.7772     0.77718
   78          H           0.197520        0.8025     0.80248
   79          H           0.199763        0.8002     0.80024
   80          H           0.355069        0.6449     0.64493
   81          H           0.308783        0.6912     0.69122
   82          H           0.297963        0.7020     0.70204
   83          H           0.355369        0.6446     0.64463
   84          H           0.306872        0.6931     0.69313
   85          H           0.303732        0.6963     0.69627
   86          H           0.198134        0.8019     0.80187
   87          H           0.197732        0.8023     0.80227
   88          H           0.191184        0.8088     0.80882
 DIPOLE           X         Y         Z       TOTAL
 POINT-CHG.    -1.998    13.497   -27.511    30.708
 HYBRID        -1.164    -1.012    -1.320     2.031
 SUM           -3.162    12.485   -28.831    31.577


          CARTESIAN COORDINATES 

    NO.       ATOM               X         Y         Z

     1         C                 18.6640  -14.6260   19.4080
     2         C                 17.8174  -15.8150   19.6161
     3         N                 16.7602  -16.1426   18.7528
     4         C                 17.9017  -16.7775   20.6321
     5         C                 16.2112  -17.2995   19.2550
     6         N                 16.8787  -17.6972   20.4026
     7         C                 19.9223  -12.0822   14.1448
     8         C                 18.8053  -12.9404   14.5680
     9         N                 17.7111  -13.2190   13.7316
    10         C                 18.5560  -13.6154   15.7686
    11         C                 16.8356  -14.0432   14.4474
    12         N                 17.3305  -14.2938   15.6917
    13         C                 22.3087  -16.8273   16.7789
    14         C                 20.9618  -17.3879   16.9913
    15         N                 20.6604  -18.3788   17.9423
    16         C                 19.7881  -17.0708   16.2946
    17         C                 19.3223  -18.6579   17.8225
    18         N                 18.7725  -17.8755   16.8185
    19         C                 22.3993  -22.7213   19.3581
    20         C                 21.2085  -22.1445   20.0092
    21         N                 20.8680  -20.7830   19.9544
    22         C                 20.2323  -22.8151   20.7615
    23         C                 19.7069  -20.6370   20.6848
    24         N                 19.3050  -21.8624   21.1763
    25         C                 24.9678  -17.8624   19.7554
    26         C                 24.7519  -18.7889   18.6328
    27         N                 23.5511  -19.4782   18.3900
    28         C                 25.6794  -19.1579   17.6466
    29         C                 23.7527  -20.2526   17.2708
    30         N                 25.0449  -20.0721   16.8055
    31         C                 22.2757  -17.5020   23.0290
    32         C                 22.5483  -18.4162   21.8727
    33         O                 21.9484  -18.0689   20.7720
    34         O                 23.2973  -19.3970   21.9503
    35         C                 11.1996  -17.0679   17.9084
    36         C                 12.4782  -16.7688   17.2470
    37         N                 12.8728  -17.3639   16.0371
    38         C                 13.5209  -15.9113   17.6138
    39         C                 14.1363  -16.8544   15.7114
    40         N                 14.5470  -15.9648   16.6596
    41         C                 14.9626  -20.5385   22.5264
    42         C                 16.3527  -20.9115   22.1087
    43         O                 16.8185  -22.0527   22.3739
    44         O                 17.0729  -20.0803   21.4762
    45        Cu                 16.3504  -15.2289   17.0764
    46        Zn                 21.8274  -19.2527   19.2578
    47         H                 23.3253  -22.2001   19.6611
    48         H                 22.3307  -22.6743   18.2605
    49         H                 22.5340  -23.7813   19.6271
    50         H                 20.4284  -12.4658   13.2428
    51         H                 20.6933  -11.9921   14.9278
    52         H                 19.5915  -11.0546   13.9113
    53         H                 11.0770  -18.1425   18.1224
    54         H                 10.3332  -16.7585   17.2992
    55         H                 11.1097  -16.5417   18.8743
    56         H                 19.4187  -14.8044   18.6246
    57         H                 19.2166  -14.3537   20.3221
    58         H                 18.0779  -13.7394   19.1157
    59         H                 22.2842  -15.9196   16.1564
    60         H                 22.9715  -17.5481   16.2695
    61         H                 22.8033  -16.5489   17.7274
    62         H                 24.2106  -17.0590   19.7961
    63         H                 25.9577  -17.3860   19.7223
    64         H                 24.8906  -18.3970   20.7275
    65         H                 22.3346  -16.4450   22.7342
    66         H                 22.9801  -17.6704   23.8548
    67         H                 21.2609  -17.6673   23.4207
    68         H                 18.5950  -16.8555   21.4524
    69         H                 15.3610  -17.8224   18.8366
    70         H                 19.1700  -13.6446   16.6535
    71         H                 15.8982  -14.4122   14.0451
    72         H                 19.6288  -16.3567   15.5018
    73         H                 18.7585  -19.3860   18.4055
    74         H                 20.1607  -23.8586   21.0179
    75         H                 19.1614  -19.7088   20.8722
    76         H                 26.6986  -18.8309   17.5140
    77         H                 23.0257  -20.9178   16.8091
    78         H                 13.5886  -15.2793   18.4854
    79         H                 14.6846  -17.1423   14.8242
    80         H                 18.4005  -22.0203   21.7077
    81         H                 25.4641  -20.5284   16.0040
    82         H                 17.8055  -17.8719   16.5247
    83         H                 16.7374  -18.6033   20.9467
    84         H                 17.5752  -12.8720   12.7901
    85         H                 12.3357  -18.0311   15.4980
    86         H                 14.9698  -19.6983   23.2340
    87         H                 14.4478  -21.3756   23.0186
    88         H                 14.3544  -20.2291   21.6675


          ATOMIC ORBITAL ELECTRON POPULATIONS

   1.07641   1.12631   1.07266   1.19166   1.08809   0.93513   0.96680   0.92857
   1.66331   1.18860   1.18555   1.30322   1.11802   1.01685   0.98429   1.10313
   1.12455   1.04584   0.97450   0.91884   1.47632   1.22382   1.25179   1.22965
   1.07732   1.08804   1.13430   1.19365   1.08933   0.89894   1.00131   0.91490
   1.45126   1.18947   1.36544   1.20163   1.11839   0.98784   1.06421   1.05739
   1.12843   1.01210   1.00171   0.90953   1.65104   1.14006   1.27547   1.18616
   1.07704   1.03383   1.16574   1.19928   1.08656   0.94760   0.92928   0.91849
   1.52793   1.11594   1.22064   1.24692   1.11864   0.92568   1.08266   1.11516
   1.12701   0.91017   1.02093   0.96712   1.42783   1.15426   1.27481   1.25900
   1.07681   1.07853   1.16972   1.15040   1.08517   0.96417   0.85133   0.99939
   1.51539   1.17125   1.15093   1.29747   1.11653   0.98076   1.03689   1.10140
   1.12788   0.94609   0.96953   0.98193   1.46197   1.24042   1.08215   1.35012
   1.07930   1.18934   1.12567   1.09689   1.08879   0.85621   0.95556   0.95726
   1.51692   1.20716   1.19799   1.17368   1.12020   1.08586   1.04704   1.00394
   1.12628   0.91919   1.05596   0.96058   1.42669   1.12369   1.30287   1.25004
   1.10235   1.21712   1.16987   1.13260   1.05626   0.67499   0.73331   0.77086
   1.77707   1.69995   1.71987   1.41209   1.85905   1.52673   1.45959   1.85365
   1.07712   1.04975   1.19724   1.16780   1.08907   0.97217   0.97584   0.87697
   1.45132   1.18617   1.35149   1.22040   1.11993   0.94862   1.09620   1.05285
   1.12644   0.89595   0.99777   1.04340   1.67372   1.26922   1.22451   1.09289
   1.10486   1.12311   1.21614   1.20625   1.04885   0.78447   0.73465   0.65208
   1.86467   1.77790   1.42023   1.71355   1.85800   1.69700   1.63664   1.63146
   0.50435   0.00041   0.00025   0.00055   1.98548   1.98254   1.97826   1.96628
   1.97732   0.90072   0.30536   0.29192   0.30795   0.81125   0.82859   0.81788
   0.81287   0.80915   0.81049   0.81407   0.81270   0.80850   0.83051   0.82059
   0.82507   0.82010   0.81736   0.80660   0.80831   0.82069   0.78803   0.80412
   0.80358   0.79866   0.79773   0.80099   0.80571   0.79341   0.79209   0.77489
   0.79306   0.77049   0.78623   0.77718   0.80248   0.80024   0.64493   0.69122
   0.70204   0.64463   0.69313   0.69627   0.80187   0.80227   0.80882

          BONDING CONTRIBUTION OF EACH M.O.

  1.6289  1.6496  1.6155  1.6155  1.6480  1.6204  1.4999  1.4470  1.4633  1.4803
  1.5083  1.4430  1.4716  1.4188  1.1769  1.1192  1.8993  1.8916  1.9043  1.8840
  1.8790  1.8924  1.8169  1.7937  1.9292  1.9376  1.9075  1.8995  1.9089  1.9209
  1.7762  1.6750  1.7794  1.6626  1.6685  1.7918  1.9218  1.9489  1.9521  1.9302
  1.8633  1.8925  1.3630  1.2195  1.9169  1.9777  1.9757  1.9459  1.9201  1.7228
  1.7407  1.6693  1.7965  1.6447  1.7086  1.8236  1.6864  1.7908  1.6511  1.9471
  1.5346  1.8147  1.6685  1.6107  1.8053  1.6656  1.8485  1.4054  1.8467  1.5311
  1.8179  1.8218  1.9680  1.8892  1.8457  1.9126  1.9370  2.0098  1.8651  1.7898
  1.7810  1.9882  1.7648  1.8995  1.8607  1.8491  1.7995  1.7119  1.7772  1.8686
  1.7413  1.8738  1.8443  1.7799  1.7708  1.6151  1.5983  1.6357  1.3107  1.6542
  1.3570  1.7771  1.0582  1.3171  1.1766  1.3437  1.0972  1.0579  0.5962  0.7031
  1.2005  0.4527  0.6496  0.7509  0.2771  0.4014  0.7171  1.6675  1.7837  1.4600
  1.6919  1.7814  1.8013  0.4233  0.4223 -2.4226 -2.4439 -2.3782 -2.2693 -2.3869
 -2.2099 -2.4363 -2.2915 -2.2066 -2.3825 -2.2505 -2.2071 -2.2130 -2.0059 -1.9341
 -1.9360 -1.9073 -1.9445 -1.8509 -1.8801 -1.9656 -1.9424 -1.8338 -1.8617 -1.9434
 -1.8724 -1.9424 -1.9053 -1.9571 -1.8774 -1.9580 -1.9045 -1.8889 -2.1606 -1.9370
 -1.9408 -1.9773 -1.9321 -1.9364 -1.9642 -1.8723 -1.8078 -2.0057 -2.0237 -1.8761
 -1.9204 -1.8847 -1.9286 -1.8600 -1.8955 -1.9047 -1.8711 -1.8968 -1.9387 -1.9215
 -1.7734 -1.7220 -1.9269 -1.9153 -1.9403 -1.9035 -1.9015 -1.9419 -1.9378 -1.9369
 -1.8980 -1.9415 -1.9028 -1.8494 -1.9433 -1.9503 -1.8162 -1.7739 -1.9052 -1.7009
 -1.9361 -1.9260 -1.8931 -1.8778 -1.9001 -1.9099 -1.8663 -1.9227 -1.8100 -1.9303
 -1.8588 -1.9128 -1.8484 -1.8506 -1.9028 -1.9309 -1.9039 -1.8506 -1.8926 -1.8944
 -1.8942 -1.9048 -1.8989 -1.8880 -1.8402 -1.8363 -1.8881 -1.8910 -0.0001 -0.0017
 -0.0029





                    BOND ORDERS AND VALENCIES


                  C  1       C  2       N  3       C  4       C  5       N  6
 ------------------------------------------------------------------------------
     C    1   3.914760
     C    2   1.011556   3.964818
     N    3   0.007762   1.287736   3.179985
     C    4   0.008485   1.519178   0.030030   3.905329
     C    5   0.010937   0.058745   1.416516   0.121192   3.914047
     N    6   0.006315   0.049527   0.095273   1.245839   1.320197   3.518239
     C    7   0.000001   0.000002   0.000046   0.000001   0.000005   0.000001
     C    8   0.000030   0.000016   0.000162   0.000001   0.000023   0.000004
     N    9   0.000036   0.000030   0.000367   0.000007   0.000074   0.000010
     C   10   0.001201   0.000069   0.001491   0.000049   0.000157   0.000039
     C   11   0.000044   0.000162   0.002085   0.000035   0.000432   0.000073
     N   12   0.000504   0.001213   0.022309   0.000264   0.002116   0.000378
     C   13   0.000003   0.000000   0.000002   0.000000   0.000001   0.000000
     C   14   0.000040   0.000002   0.000010   0.000002   0.000003   0.000003
     N   15   0.000007   0.000013   0.000023   0.000021   0.000010   0.000026
     C   16   0.000040   0.000011   0.000104   0.000011   0.000027   0.000010
     C   17   0.000009   0.000027   0.000097   0.000054   0.000044   0.000085
     N   18   0.000027   0.000055   0.000479   0.000037   0.000105   0.000020
     C   19   0.000000   0.000000   0.000000   0.000000   0.000000   0.000002
     C   20   0.000000   0.000000   0.000001   0.000001   0.000002   0.000010
     N   21   0.000001   0.000004   0.000001   0.000011   0.000004   0.000018
     C   22   0.000000   0.000001   0.000000   0.000003   0.000000   0.000003
     C   23   0.000000   0.000012   0.000025   0.000124   0.000035   0.000313
     N   24   0.000000   0.000001   0.000001   0.000003   0.000002   0.000026
     C   25   0.000000   0.000000   0.000000   0.000000   0.000000   0.000000
     C   26   0.000000   0.000000   0.000000   0.000000   0.000000   0.000000
     N   27   0.000001   0.000003   0.000000   0.000006   0.000001   0.000001
     C   28   0.000000   0.000000   0.000000   0.000000   0.000000   0.000000
     C   29   0.000000   0.000000   0.000000   0.000000   0.000000   0.000000
     N   30   0.000000   0.000000   0.000000   0.000000   0.000000   0.000000
     C   31   0.000000   0.000001   0.000000   0.000016   0.000000   0.000000
     C   32   0.000000   0.000000   0.000000   0.000002   0.000000   0.000000
     O   33   0.000000   0.000003   0.000000   0.000008   0.000001   0.000000
     O   34   0.000000   0.000000   0.000000   0.000001   0.000000   0.000000
     C   35   0.000001   0.000008   0.000042   0.000001   0.000006   0.000001
     C   36   0.000003   0.000015   0.000096   0.000011   0.000133   0.000016
     N   37   0.000009   0.000118   0.000567   0.000014   0.000128   0.000012
     C   38   0.000020   0.000394   0.002231   0.000071   0.000459   0.000057
     C   39   0.000035   0.000674   0.003698   0.000100   0.000550   0.000082
     N   40   0.000396   0.002148   0.018105   0.000299   0.002389   0.000318
     C   41   0.000000   0.000001   0.000002   0.000010   0.000011   0.000106
     C   42   0.000013   0.000077   0.000152   0.000259   0.000368   0.004326


                  C  1       C  2       N  3       C  4       C  5       N  6
 ------------------------------------------------------------------------------
     O   43   0.000013   0.000049   0.000098   0.000345   0.000437   0.002755
     O   44   0.000101   0.000386   0.000707   0.003148   0.003722   0.029219
    Cu   45   0.003093   0.012417   0.260905   0.002808   0.017950   0.004027
    Zn   46   0.000001   0.000012   0.000004   0.000035   0.000002   0.000001
     H   47   0.000000   0.000000   0.000000   0.000000   0.000000   0.000000
     H   48   0.000000   0.000000   0.000000   0.000000   0.000000   0.000000
     H   49   0.000000   0.000000   0.000000   0.000000   0.000000   0.000000
     H   50   0.000000   0.000000   0.000002   0.000000   0.000000   0.000000
     H   51   0.000000   0.000000   0.000001   0.000000   0.000000   0.000000
     H   52   0.000000   0.000000   0.000002   0.000000   0.000000   0.000000
     H   53   0.000000   0.000001   0.000003   0.000000   0.000001   0.000000
     H   54   0.000000   0.000000   0.000001   0.000000   0.000001   0.000000
     H   55   0.000000   0.000000   0.000001   0.000000   0.000000   0.000000
     H   56   0.953378   0.001456   0.003918   0.007647   0.000794   0.000715
     H   57   0.955423   0.001482   0.005628   0.001258   0.000704   0.000158
     H   58   0.954212   0.001282   0.002262   0.006299   0.000520   0.000415
     H   59   0.000000   0.000000   0.000000   0.000000   0.000000   0.000000
     H   60   0.000000   0.000000   0.000000   0.000000   0.000000   0.000000
     H   61   0.000000   0.000000   0.000000   0.000000   0.000000   0.000000
     H   62   0.000000   0.000000   0.000000   0.000000   0.000000   0.000000
     H   63   0.000000   0.000000   0.000000   0.000000   0.000000   0.000000
     H   64   0.000000   0.000000   0.000000   0.000000   0.000000   0.000000
     H   65   0.000000   0.000000   0.000000   0.000000   0.000000   0.000000
     H   66   0.000000   0.000000   0.000000   0.000001   0.000000   0.000000
     H   67   0.000000   0.000000   0.000000   0.000000   0.000000   0.000000
     H   68   0.000084   0.001259   0.004971   0.942191   0.008783   0.001189
     H   69   0.000121   0.007991   0.002156   0.008123   0.937701   0.002438
     H   70   0.000190   0.000009   0.000051   0.000001   0.000002   0.000001
     H   71   0.000003   0.000004   0.000132   0.000002   0.000010   0.000003
     H   72   0.000001   0.000000   0.000003   0.000000   0.000000   0.000000
     H   73   0.000000   0.000001   0.000001   0.000014   0.000040   0.000042
     H   74   0.000000   0.000000   0.000000   0.000000   0.000000   0.000000
     H   75   0.000000   0.000001   0.000003   0.000109   0.000002   0.000094
     H   76   0.000000   0.000000   0.000000   0.000000   0.000000   0.000000
     H   77   0.000000   0.000000   0.000000   0.000000   0.000000   0.000000
     H   78   0.000001   0.000009   0.000065   0.000001   0.000033   0.000001
     H   79   0.000001   0.000010   0.000103   0.000002   0.000008   0.000002
     H   80   0.000000   0.000000   0.000000   0.000000   0.000000   0.000003
     H   81   0.000000   0.000000   0.000000   0.000000   0.000000   0.000000
     H   82   0.000000   0.000008   0.000272   0.000006   0.000120   0.000002
     H   83   0.000644   0.006582   0.008852   0.007177   0.008467   0.754008
     H   84   0.000014   0.000011   0.000184   0.000004   0.000033   0.000005
     H   85   0.000003   0.000043   0.000243   0.000007   0.000033   0.000006
     H   86   0.000000   0.000000   0.000000   0.000001   0.000000   0.000003
     H   87   0.000000   0.000001   0.000002   0.000004   0.000005   0.000059
     H   88   0.000000   0.000000   0.000000   0.000000   0.000001   0.000003


                  C  7       C  8       N  9       C 10       C 11       N 12
 ------------------------------------------------------------------------------
     C    7   3.897951
     C    8   1.015402   3.943646
     N    9   0.008475   1.224617   3.504953
     C   10   0.008900   1.537335   0.049712   3.924535
     C   11   0.011297   0.107892   1.240342   0.066420   3.907132
     N   12   0.006085   0.031044   0.091647   1.265443   1.500810   3.219967
     C   13   0.000000   0.000000   0.000000   0.000002   0.000000   0.000001
     C   14   0.000000   0.000006   0.000002   0.000014   0.000001   0.000008
     N   15   0.000000   0.000002   0.000001   0.000003   0.000002   0.000016
     C   16   0.000001   0.000102   0.000019   0.000138   0.000009   0.000180
     C   17   0.000000   0.000005   0.000002   0.000007   0.000002   0.000033
     N   18   0.000001   0.000006   0.000006   0.000027   0.000018   0.000257
     C   19   0.000000   0.000000   0.000000   0.000000   0.000000   0.000000
     C   20   0.000000   0.000000   0.000000   0.000000   0.000000   0.000000
     N   21   0.000000   0.000000   0.000000   0.000000   0.000000   0.000000
     C   22   0.000000   0.000000   0.000000   0.000000   0.000000   0.000000
     C   23   0.000000   0.000000   0.000000   0.000000   0.000000   0.000000
     N   24   0.000000   0.000000   0.000000   0.000000   0.000000   0.000000
     C   25   0.000000   0.000000   0.000000   0.000000   0.000000   0.000000
     C   26   0.000000   0.000000   0.000000   0.000000   0.000000   0.000000
     N   27   0.000000   0.000000   0.000000   0.000000   0.000000   0.000000
     C   28   0.000000   0.000000   0.000000   0.000000   0.000000   0.000000
     C   29   0.000000   0.000000   0.000000   0.000000   0.000000   0.000000
     N   30   0.000000   0.000000   0.000000   0.000000   0.000000   0.000000
     C   31   0.000000   0.000000   0.000000   0.000000   0.000000   0.000000
     C   32   0.000000   0.000000   0.000000   0.000000   0.000000   0.000000
     O   33   0.000000   0.000000   0.000000   0.000000   0.000000   0.000000
     O   34   0.000000   0.000000   0.000000   0.000000   0.000000   0.000000
     C   35   0.000000   0.000001   0.000001   0.000011   0.000008   0.000044
     C   36   0.000001   0.000002   0.000003   0.000036   0.000029   0.000137
     N   37   0.000002   0.000006   0.000009   0.000073   0.000038   0.000350
     C   38   0.000013   0.000035   0.000032   0.000368   0.000198   0.001590
     C   39   0.000014   0.000047   0.000042   0.000404   0.000210   0.002002
     N   40   0.000072   0.000194   0.000263   0.002262   0.001715   0.018003
     C   41   0.000000   0.000000   0.000000   0.000000   0.000000   0.000000
     C   42   0.000000   0.000000   0.000000   0.000000   0.000001   0.000004
     O   43   0.000000   0.000000   0.000000   0.000000   0.000001   0.000003
     O   44   0.000000   0.000000   0.000001   0.000002   0.000005   0.000020
    Cu   45   0.000332   0.002221   0.004236   0.015013   0.019691   0.259954
    Zn   46   0.000000   0.000000   0.000000   0.000001   0.000000   0.000003
     H   47   0.000000   0.000000   0.000000   0.000000   0.000000   0.000000
     H   48   0.000000   0.000000   0.000000   0.000000   0.000000   0.000000
     H   49   0.000000   0.000000   0.000000   0.000000   0.000000   0.000000
     H   50   0.948711   0.001638   0.002828   0.007353   0.001330   0.000319
     H   51   0.950567   0.002240   0.006017   0.000621   0.000837   0.000167
     H   52   0.947239   0.001737   0.002983   0.007554   0.001364   0.000328


                  C  7       C  8       N  9       C 10       C 11       N 12
 ------------------------------------------------------------------------------
     H   53   0.000000   0.000000   0.000000   0.000001   0.000000   0.000003
     H   54   0.000000   0.000000   0.000000   0.000000   0.000000   0.000001
     H   55   0.000000   0.000000   0.000000   0.000000   0.000000   0.000002
     H   56   0.000000   0.000001   0.000000   0.000023   0.000001   0.000004
     H   57   0.000000   0.000000   0.000005   0.000037   0.000015   0.000126
     H   58   0.000000   0.000000   0.000002   0.000035   0.000011   0.000079
     H   59   0.000000   0.000000   0.000000   0.000001   0.000000   0.000000
     H   60   0.000000   0.000000   0.000000   0.000000   0.000000   0.000000
     H   61   0.000000   0.000000   0.000000   0.000000   0.000000   0.000000
     H   62   0.000000   0.000000   0.000000   0.000000   0.000000   0.000000
     H   63   0.000000   0.000000   0.000000   0.000000   0.000000   0.000000
     H   64   0.000000   0.000000   0.000000   0.000000   0.000000   0.000000
     H   65   0.000000   0.000000   0.000000   0.000000   0.000000   0.000000
     H   66   0.000000   0.000000   0.000000   0.000000   0.000000   0.000000
     H   67   0.000000   0.000000   0.000000   0.000000   0.000000   0.000000
     H   68   0.000000   0.000000   0.000001   0.000002   0.000004   0.000030
     H   69   0.000000   0.000001   0.000002   0.000003   0.000007   0.000092
     H   70   0.000104   0.001794   0.005424   0.942361   0.008587   0.001168
     H   71   0.000111   0.007921   0.002549   0.008349   0.934180   0.002243
     H   72   0.000000   0.000013   0.000001   0.000331   0.000004   0.000087
     H   73   0.000000   0.000000   0.000000   0.000000   0.000000   0.000001
     H   74   0.000000   0.000000   0.000000   0.000000   0.000000   0.000000
     H   75   0.000000   0.000000   0.000000   0.000000   0.000000   0.000000
     H   76   0.000000   0.000000   0.000000   0.000000   0.000000   0.000000
     H   77   0.000000   0.000000   0.000000   0.000000   0.000000   0.000000
     H   78   0.000000   0.000001   0.000001   0.000005   0.000004   0.000088
     H   79   0.000000   0.000001   0.000001   0.000008   0.000008   0.000082
     H   80   0.000000   0.000000   0.000000   0.000000   0.000000   0.000000
     H   81   0.000000   0.000000   0.000000   0.000000   0.000000   0.000000
     H   82   0.000000   0.000001   0.000001   0.000001   0.000001   0.000020
     H   83   0.000000   0.000002   0.000004   0.000008   0.000025   0.000141
     H   84   0.000563   0.009139   0.865200   0.008625   0.009218   0.010394
     H   85   0.000001   0.000004   0.000004   0.000035   0.000014   0.000174
     H   86   0.000000   0.000000   0.000000   0.000000   0.000000   0.000000
     H   87   0.000000   0.000000   0.000000   0.000000   0.000000   0.000000
     H   88   0.000000   0.000000   0.000000   0.000000   0.000000   0.000000


                  C 13       C 14       N 15       C 16       C 17       N 18
 ------------------------------------------------------------------------------
     C   13   3.903739
     C   14   1.013381   3.957972
     N   15   0.008722   1.270201   3.499787
[...]
     H   87   0.000000   0.000000   0.000000   0.000000   0.000000   0.000000
     H   88   0.000000   0.000000   0.000000   0.000000   0.000000   0.000000


                  N 37       C 38       C 39       N 40       C 41       C 42
 ------------------------------------------------------------------------------
     N   37   3.502907
     C   38   0.050113   3.928094
     C   39   1.235616   0.064443   3.908465
     N   40   0.093619   1.275123   1.496378   3.182890
     C   41   0.000000   0.000000   0.000000   0.000000   3.881469
     C   42   0.000000   0.000000   0.000001   0.000003   0.939187   3.737524
     O   43   0.000000   0.000000   0.000001   0.000003   0.047029   1.425647
     O   44   0.000001   0.000003   0.000006   0.000019   0.050512   1.349531
    Cu   45   0.003901   0.013734   0.020576   0.219943   0.000000   0.000021
    Zn   46   0.000000   0.000000   0.000000   0.000002   0.000006   0.000017
     H   47   0.000000   0.000000   0.000000   0.000000   0.000000   0.000001
     H   48   0.000000   0.000000   0.000000   0.000000   0.000000   0.000000
     H   49   0.000000   0.000000   0.000000   0.000000   0.000000   0.000001
     H   50   0.000000   0.000000   0.000000   0.000002   0.000000   0.000000
     H   51   0.000000   0.000000   0.000000   0.000002   0.000000   0.000000
     H   52   0.000000   0.000001   0.000001   0.000003   0.000000   0.000000
     H   53   0.002736   0.007260   0.001327   0.000289   0.000000   0.000000
     H   54   0.003028   0.007521   0.001498   0.000301   0.000000   0.000000
     H   55   0.006009   0.000661   0.000816   0.000186   0.000000   0.000000
     H   56   0.000000   0.000000   0.000000   0.000009   0.000000   0.000001
     H   57   0.000005   0.000011   0.000021   0.000121   0.000000   0.000000
     H   58   0.000002   0.000008   0.000013   0.000105   0.000000   0.000001
     H   59   0.000000   0.000000   0.000000   0.000000   0.000000   0.000000
     H   60   0.000000   0.000000   0.000000   0.000000   0.000000   0.000000
     H   61   0.000000   0.000000   0.000000   0.000000   0.000000   0.000000
     H   62   0.000000   0.000000   0.000000   0.000000   0.000000   0.000000
     H   63   0.000000   0.000000   0.000000   0.000000   0.000000   0.000000
     H   64   0.000000   0.000000   0.000000   0.000000   0.000000   0.000000
     H   65   0.000000   0.000000   0.000000   0.000000   0.000000   0.000000
     H   66   0.000000   0.000000   0.000000   0.000000   0.000000   0.000000
     H   67   0.000000   0.000000   0.000000   0.000000   0.000000   0.000000
     H   68   0.000003   0.000011   0.000017   0.000049   0.000000   0.000000
     H   69   0.000003   0.000288   0.000030   0.000149   0.000000   0.000002
     H   70   0.000001   0.000002   0.000003   0.000055   0.000000   0.000000
     H   71   0.000001   0.000008   0.000038   0.000089   0.000000   0.000000
     H   72   0.000000   0.000000   0.000000   0.000003   0.000000   0.000000
     H   73   0.000000   0.000000   0.000000   0.000000   0.000000   0.000000
     H   74   0.000000   0.000000   0.000000   0.000000   0.000000   0.000000
     H   75   0.000000   0.000000   0.000000   0.000000   0.000025   0.000064
     H   76   0.000000   0.000000   0.000000   0.000000   0.000000   0.000000
     H   77   0.000000   0.000000   0.000000   0.000000   0.000000   0.000000
     H   78   0.005465   0.941693   0.008638   0.001180   0.000000   0.000000
     H   79   0.002514   0.008062   0.938106   0.002081   0.000000   0.000000
     H   80   0.000000   0.000000   0.000000   0.000000   0.001849   0.001459
     H   81   0.000000   0.000000   0.000000   0.000000   0.000000   0.000000
     H   82   0.000000   0.000001   0.000007   0.000014   0.000000   0.000000


                  N 37       C 38       C 39       N 40       C 41       C 42
 ------------------------------------------------------------------------------
     H   83   0.000006   0.000017   0.000036   0.000139   0.000131   0.000377
     H   84   0.000004   0.000017   0.000014   0.000142   0.000000   0.000000
     H   85   0.866591   0.008766   0.009280   0.010619   0.000000   0.000000
     H   86   0.000000   0.000000   0.000000   0.000000   0.942708   0.006274
     H   87   0.000000   0.000000   0.000000   0.000000   0.951138   0.001779
     H   88   0.000000   0.000000   0.000000   0.000000   0.946625   0.005639


                  O 43       O 44      Cu 45      Zn 46       H 47       H 48
 ------------------------------------------------------------------------------
     O   43   1.740320
     O   44   0.156647   1.696837
    Cu   45   0.000019   0.000130   0.876254
    Zn   46   0.000177   0.000010   0.000006   2.525982
     H   47   0.000003   0.000000   0.000000   0.001545   0.964374
     H   48   0.000004   0.000000   0.000000   0.000590   0.000894   0.970620
     H   49   0.000002   0.000001   0.000000   0.000386   0.001244   0.001050
     H   50   0.000000   0.000000   0.000016   0.000000   0.000000   0.000000
     H   51   0.000000   0.000000   0.000015   0.000000   0.000000   0.000000
     H   52   0.000000   0.000000   0.000024   0.000000   0.000000   0.000000
     H   53   0.000000   0.000000   0.000022   0.000000   0.000000   0.000000
     H   54   0.000000   0.000000   0.000006   0.000000   0.000000   0.000000
     H   55   0.000000   0.000000   0.000011   0.000000   0.000000   0.000000
     H   56   0.000001   0.000003   0.000305   0.000002   0.000000   0.000000
     H   57   0.000000   0.000002   0.000404   0.000000   0.000000   0.000000
     H   58   0.000000   0.000003   0.002091   0.000000   0.000000   0.000000
     H   59   0.000000   0.000000   0.000000   0.000324   0.000001   0.000000
     H   60   0.000000   0.000000   0.000000   0.000399   0.000000   0.000000
     H   61   0.000000   0.000000   0.000000   0.002044   0.000001   0.000000
     H   62   0.000000   0.000000   0.000000   0.001736   0.000000   0.000000
     H   63   0.000000   0.000000   0.000000   0.000380   0.000001   0.000000
     H   64   0.000000   0.000000   0.000000   0.000827   0.000000   0.000000
     H   65   0.000000   0.000000   0.000000   0.000182   0.000000   0.000000
     H   66   0.000000   0.000000   0.000000   0.000636   0.000000   0.000000
     H   67   0.000000   0.000000   0.000000   0.000026   0.000000   0.000000
     H   68   0.000001   0.000007   0.000192   0.000019   0.000000   0.000000
     H   69   0.000003   0.000024   0.000864   0.000000   0.000000   0.000000
     H   70   0.000000   0.000000   0.000636   0.000000   0.000000   0.000000
     H   71   0.000000   0.000000   0.001268   0.000000   0.000000   0.000000
     H   72   0.000000   0.000000   0.000101   0.000292   0.000000   0.000000
     H   73   0.000000   0.000006   0.000002   0.001784   0.000001   0.000000
     H   74   0.000003   0.000003   0.000000   0.000358   0.000002   0.000003
     H   75   0.000008   0.003101   0.000000   0.002299   0.000011   0.000003
     H   76   0.000000   0.000000   0.000000   0.000301   0.000000   0.000000
     H   77   0.000000   0.000000   0.000000   0.001854   0.000005   0.000673
     H   78   0.000000   0.000000   0.001111   0.000000   0.000000   0.000000
     H   79   0.000000   0.000000   0.000695   0.000000   0.000000   0.000000
     H   80   0.062343   0.002560   0.000000   0.001090   0.000049   0.000047
     H   81   0.000000   0.000000   0.000000   0.001303   0.000001   0.000000
     H   82   0.000000   0.000000   0.001403   0.001286   0.000001   0.000000
     H   83   0.002716   0.082751   0.000812   0.000000   0.000000   0.000000
     H   84   0.000000   0.000000   0.000967   0.000000   0.000000   0.000000
     H   85   0.000000   0.000000   0.000973   0.000000   0.000000   0.000000
     H   86   0.005020   0.002905   0.000000   0.000000   0.000000   0.000000
     H   87   0.000576   0.004343   0.000000   0.000001   0.000000   0.000000
     H   88   0.005022   0.002556   0.000000   0.000000   0.000000   0.000000


                  H 49       H 50       H 51       H 52       H 53       H 54
 ------------------------------------------------------------------------------
     H   49   0.966832
     H   50   0.000000   0.964983
     H   51   0.000000   0.001320   0.963577
     H   52   0.000000   0.001310   0.001416   0.964085
     H   53   0.000000   0.000000   0.000000   0.000000   0.965429
     H   54   0.000000   0.000000   0.000000   0.000000   0.001224   0.964918
     H   55   0.000000   0.000000   0.000000   0.000000   0.001354   0.001373
     H   56   0.000000   0.000000   0.000000   0.000000   0.000000   0.000000
     H   57   0.000000   0.000000   0.000000   0.000000   0.000000   0.000000
     H   58   0.000000   0.000000   0.000000   0.000000   0.000000   0.000000
     H   59   0.000001   0.000000   0.000000   0.000000   0.000000   0.000000
     H   60   0.000000   0.000000   0.000000   0.000000   0.000000   0.000000
     H   61   0.000001   0.000000   0.000000   0.000000   0.000000   0.000000
     H   62   0.000001   0.000000   0.000000   0.000000   0.000000   0.000000
     H   63   0.000001   0.000000   0.000000   0.000000   0.000000   0.000000
     H   64   0.000000   0.000000   0.000000   0.000000   0.000000   0.000000
     H   65   0.000000   0.000000   0.000000   0.000000   0.000000   0.000000
     H   66   0.000001   0.000000   0.000000   0.000000   0.000000   0.000000
     H   67   0.000000   0.000000   0.000000   0.000000   0.000000   0.000000
     H   68   0.000000   0.000000   0.000000   0.000000   0.000000   0.000000
     H   69   0.000000   0.000000   0.000000   0.000000   0.000000   0.000000
     H   70   0.000000   0.000001   0.000045   0.000001   0.000000   0.000000
     H   71   0.000000   0.000004   0.000114   0.000003   0.000000   0.000000
     H   72   0.000001   0.000000   0.000000   0.000000   0.000000   0.000000
     H   73   0.000001   0.000000   0.000000   0.000000   0.000000   0.000000
     H   74   0.000074   0.000000   0.000000   0.000000   0.000000   0.000000
     H   75   0.000132   0.000000   0.000000   0.000000   0.000000   0.000000
     H   76   0.000001   0.000000   0.000000   0.000000   0.000000   0.000000
     H   77   0.000000   0.000000   0.000000   0.000000   0.000000   0.000000
     H   78   0.000000   0.000000   0.000000   0.000000   0.000001   0.000001
     H   79   0.000000   0.000000   0.000000   0.000000   0.000005   0.000002
     H   80   0.000031   0.000000   0.000000   0.000000   0.000000   0.000000
     H   81   0.000001   0.000000   0.000000   0.000000   0.000000   0.000000
     H   82   0.000001   0.000000   0.000000   0.000000   0.000000   0.000000
     H   83   0.000000   0.000000   0.000000   0.000000   0.000000   0.000000
     H   84   0.000000   0.000146   0.000215   0.000119   0.000000   0.000000
     H   85   0.000000   0.000000   0.000000   0.000000   0.000158   0.000093
     H   86   0.000000   0.000000   0.000000   0.000000   0.000000   0.000000
     H   87   0.000000   0.000000   0.000000   0.000000   0.000000   0.000000
     H   88   0.000000   0.000000   0.000000   0.000000   0.000000   0.000000


                  H 55       H 56       H 57       H 58       H 59       H 60
 ------------------------------------------------------------------------------
     H   55   0.963329
     H   56   0.000000   0.971274
     H   57   0.000000   0.001128   0.967813
     H   58   0.000000   0.000751   0.001078   0.969401
     H   59   0.000000   0.000001   0.000000   0.000000   0.967637
     H   60   0.000000   0.000000   0.000000   0.000000   0.001095   0.966643
     H   61   0.000000   0.000001   0.000000   0.000000   0.001185   0.001272
     H   62   0.000000   0.000000   0.000000   0.000000   0.000000   0.000000
     H   63   0.000000   0.000000   0.000000   0.000000   0.000002   0.000000
     H   64   0.000000   0.000000   0.000000   0.000000   0.000001   0.000000
     H   65   0.000000   0.000000   0.000000   0.000000   0.000000   0.000000
     H   66   0.000000   0.000000   0.000000   0.000000   0.000001   0.000000
     H   67   0.000000   0.000000   0.000000   0.000000   0.000000   0.000000
     H   68   0.000000   0.000001   0.000065   0.000002   0.000000   0.000000
     H   69   0.000000   0.000000   0.000111   0.000015   0.000000   0.000000
     H   70   0.000000   0.000964   0.000002   0.000155   0.000002   0.000000
     H   71   0.000000   0.000000   0.000001   0.000001   0.000000   0.000000
     H   72   0.000000   0.000008   0.000000   0.000000   0.000066   0.000002
     H   73   0.000000   0.000000   0.000000   0.000000   0.000122   0.000000
     H   74   0.000000   0.000000   0.000000   0.000000   0.000001   0.000000
     H   75   0.000000   0.000000   0.000000   0.000000   0.000001   0.000000
     H   76   0.000000   0.000000   0.000000   0.000000   0.000001   0.000001
     H   77   0.000000   0.000000   0.000000   0.000000   0.000001   0.000007
     H   78   0.000052   0.000000   0.000000   0.000000   0.000000   0.000000
     H   79   0.000112   0.000000   0.000000   0.000001   0.000000   0.000000
     H   80   0.000000   0.000000   0.000000   0.000000   0.000001   0.000000
     H   81   0.000000   0.000000   0.000000   0.000000   0.000002   0.000003
     H   82   0.000000   0.000000   0.000000   0.000000   0.000026   0.000030
     H   83   0.000000   0.000031   0.000018   0.000052   0.000000   0.000000
     H   84   0.000000   0.000000   0.000002   0.000001   0.000000   0.000000
     H   85   0.000216   0.000000   0.000002   0.000001   0.000000   0.000000
     H   86   0.000000   0.000000   0.000000   0.000000   0.000000   0.000000
     H   87   0.000000   0.000000   0.000000   0.000000   0.000000   0.000000
     H   88   0.000000   0.000000   0.000000   0.000000   0.000000   0.000000


                  H 61       H 62       H 63       H 64       H 65       H 66
 ------------------------------------------------------------------------------
     H   61   0.962595
     H   62   0.000371   0.963254
     H   63   0.000001   0.000911   0.967848
     H   64   0.000003   0.001943   0.001144   0.955068
     H   65   0.000000   0.000004   0.000000   0.000000   0.961630
     H   66   0.000000   0.000000   0.000001   0.000004   0.001023   0.961418
     H   67   0.000000   0.000000   0.000000   0.000002   0.002245   0.001555
     H   68   0.000000   0.000000   0.000000   0.000000   0.000001   0.000000
     H   69   0.000000   0.000000   0.000000   0.000000   0.000000   0.000000
     H   70   0.000000   0.000000   0.000000   0.000000   0.000000   0.000000
     H   71   0.000000   0.000000   0.000000   0.000000   0.000000   0.000000
     H   72   0.000003   0.000000   0.000000   0.000000   0.000000   0.000000
     H   73   0.000020   0.000001   0.000001   0.000001   0.000000   0.000000
     H   74   0.000000   0.000000   0.000000   0.000000   0.000000   0.000000
     H   75   0.000001   0.000001   0.000001   0.000000   0.000000   0.000000
     H   76   0.000001   0.000004   0.000070   0.000003   0.000000   0.000000
     H   77   0.000001   0.000012   0.000130   0.000004   0.000000   0.000000
     H   78   0.000000   0.000000   0.000000   0.000000   0.000000   0.000000
     H   79   0.000000   0.000000   0.000000   0.000000   0.000000   0.000000
     H   80   0.000000   0.000001   0.000001   0.000000   0.000000   0.000000
     H   81   0.000001   0.000068   0.000030   0.000050   0.000000   0.000001
     H   82   0.000087   0.000000   0.000001   0.000001   0.000000   0.000001
     H   83   0.000000   0.000000   0.000000   0.000000   0.000000   0.000000
     H   84   0.000000   0.000000   0.000000   0.000000   0.000000   0.000000
     H   85   0.000000   0.000000   0.000000   0.000000   0.000000   0.000000
     H   86   0.000000   0.000000   0.000000   0.000000   0.000000   0.000000
     H   87   0.000000   0.000000   0.000000   0.000000   0.000000   0.000000
     H   88   0.000000   0.000000   0.000000   0.000000   0.000000   0.000000


                  H 67       H 68       H 69       H 70       H 71       H 72
 ------------------------------------------------------------------------------
     H   67   0.959464
     H   68   0.000015   0.959087
     H   69   0.000000   0.000025   0.960396
     H   70   0.000000   0.000000   0.000000   0.962250
     H   71   0.000000   0.000000   0.000000   0.000025   0.957320
     H   72   0.000000   0.000000   0.000000   0.000060   0.000000   0.956773
     H   73   0.000000   0.000001   0.000003   0.000000   0.000000   0.000020
     H   74   0.000000   0.000000   0.000000   0.000000   0.000000   0.000000
     H   75   0.000002   0.000077   0.000000   0.000000   0.000000   0.000001
     H   76   0.000000   0.000000   0.000000   0.000000   0.000000   0.000000
     H   77   0.000000   0.000000   0.000000   0.000000   0.000000   0.000000
     H   78   0.000000   0.000000   0.000021   0.000000   0.000000   0.000000
     H   79   0.000000   0.000000   0.000000   0.000000   0.000041   0.000000
     H   80   0.000000   0.000000   0.000000   0.000000   0.000000   0.000000
     H   81   0.000000   0.000000   0.000000   0.000000   0.000000   0.000000
     H   82   0.000000   0.000000   0.000015   0.000000   0.000000   0.000040
     H   83   0.000000   0.000059   0.000175   0.000000   0.000001   0.000000
     H   84   0.000000   0.000000   0.000001   0.000586   0.000215   0.000000
     H   85   0.000000   0.000001   0.000002   0.000000   0.000001   0.000000
     H   86   0.000000   0.000000   0.000000   0.000000   0.000000   0.000000
     H   87   0.000000   0.000000   0.000000   0.000000   0.000000   0.000000
     H   88   0.000000   0.000000   0.000002   0.000000   0.000000   0.000000


                  H 73       H 74       H 75       H 76       H 77       H 78
 ------------------------------------------------------------------------------
     H   73   0.949326
     H   74   0.000000   0.957176
     H   75   0.000363   0.000010   0.947325
     H   76   0.000000   0.000000   0.000000   0.954303
     H   77   0.000001   0.000000   0.000002   0.000017   0.950352
     H   78   0.000000   0.000000   0.000000   0.000000   0.000000   0.960986
     H   79   0.000000   0.000000   0.000000   0.000000   0.000000   0.000023
     H   80   0.000001   0.000033   0.000195   0.000001   0.000001   0.000000
     H   81   0.000001   0.000000   0.000001   0.000040   0.000220   0.000000
     H   82   0.000237   0.000000   0.000000   0.000001   0.000001   0.000000
     H   83   0.000018   0.000000   0.000259   0.000000   0.000000   0.000000
     H   84   0.000000   0.000000   0.000000   0.000000   0.000000   0.000000
     H   85   0.000000   0.000000   0.000000   0.000000   0.000000   0.000602
     H   86   0.000000   0.000000   0.000000   0.000000   0.000000   0.000000
     H   87   0.000000   0.000000   0.000001   0.000000   0.000000   0.000000
     H   88   0.000000   0.000000   0.000000   0.000000   0.000000   0.000000


                  H 79       H 80       H 81       H 82       H 83       H 84
 ------------------------------------------------------------------------------
     H   79   0.960095
     H   80   0.000000   0.873926
     H   81   0.000000   0.000001   0.904653
     H   82   0.000005   0.000000   0.000001   0.911218
     H   83   0.000001   0.000004   0.000000   0.000000   0.873713
     H   84   0.000000   0.000000   0.000000   0.000000   0.000002   0.905829
     H   85   0.000203   0.000000   0.000000   0.000000   0.000002   0.000002
     H   86   0.000000   0.000008   0.000000   0.000000   0.000036   0.000000
     H   87   0.000000   0.000015   0.000000   0.000000   0.000007   0.000000
     H   88   0.000000   0.000011   0.000000   0.000000   0.000058   0.000000


                  H 85       H 86       H 87       H 88
 ------------------------------------------------------
     H   85   0.907747
     H   86   0.000000   0.960743
     H   87   0.000000   0.001602   0.960902
     H   88   0.000000   0.002170   0.001337   0.963449



 TOTAL CPU TIME:            42.26 SECONDS

 == MOPAC DONE ==
